
     Program PWSCF v.6.1 (svn rev. 13369) starts on 30Nov2022 at 14:24:28 

     This program is part of the open-source Quantum ESPRESSO suite
     for quantum simulation of materials; please cite
         "P. Giannozzi et al., J. Phys.:Condens. Matter 21 395502 (2009);
          URL http://www.quantum-espresso.org", 
     in publications or presentations arising from this work. More details at
     http://www.quantum-espresso.org/quote

     Parallel version (MPI), running on     1 processors
     Reading input from ./H.in
Warning: card &IONS ignored
Warning: card 	ION_DYNAMICS='BFGS', ignored
Warning: card / ignored
Warning: card &CELL ignored
Warning: card / ignored

     Current dimensions of program PWSCF are:
     Max number of different atomic species (ntypx) = 10
     Max number of k-points (npk) =  40000
     Max angular momentum in pseudopotentials (lmaxx) =  3
               file H.pbe-kjpaw_psl.0.1.UPF: wavefunction(s)  1S renormalized
     Message from routine setup:
     At least one non s.o. pseudo

     Subspace diagonalization in iterative solution of the eigenvalue problem:
     a serial algorithm will be used

 
     G-vector sticks info
     --------------------
     sticks:   dense  smooth     PW     G-vecs:    dense   smooth      PW
     Sum        5689    5689   1541               322453   322453   45385
 


     bravais-lattice index     =            0
     lattice parameter (alat)  =      18.8973  a.u.
     unit-cell volume          =    6748.3346 (a.u.)^3
     number of atoms/cell      =            1
     number of atomic types    =            1
     number of electrons       =         1.00
     number of Kohn-Sham states=           10
     kinetic-energy cutoff     =      50.0000  Ry
     charge density cutoff     =     200.0000  Ry
     convergence threshold     =      1.0E-06
     mixing beta               =       0.7000
     number of iterations used =            8  plain     mixing
     Exchange-correlation      =  SLA  PW   PBX  PBC ( 1  4  3  4 0 0)
     Non magnetic calculation with spin-orbit


     celldm(1)=  18.897261  celldm(2)=   0.000000  celldm(3)=   0.000000
     celldm(4)=   0.000000  celldm(5)=   0.000000  celldm(6)=   0.000000

     crystal axes: (cart. coord. in units of alat)
               a(1) = (   1.000000   0.000000   0.000000 )  
               a(2) = (   0.000000   1.000000   0.000000 )  
               a(3) = (   0.000000   0.000000   1.000000 )  

     reciprocal axes: (cart. coord. in units 2 pi/alat)
               b(1) = (  1.000000  0.000000  0.000000 )  
               b(2) = (  0.000000  1.000000  0.000000 )  
               b(3) = (  0.000000  0.000000  1.000000 )  


     PseudoPot. # 1 for  H read from file:
     /home/shaharpit/MeamGdH/dft/qe_potentials/H.pbe-kjpaw_psl.0.1.UPF
     MD5 check sum: fbb168fef676c0aaadbafd73f5b1efa8
     Pseudo is Projector augmented-wave, Zval =  1.0
     Generated using "atomic" code by A. Dal Corso  v.5.0.2 svn rev. 9415
     Shape of augmentation charge: PSQ
     Using radial grid of  929 points,  2 beta functions with: 
                l(1) =   0
                l(2) =   0
     Q(r) pseudized with 0 coefficients 


     atomic species   valence    mass     pseudopotential
        H              1.00     1.00794      H( 1.00)

     48 Sym. Ops., with inversion, found



   Cartesian axes

     site n.     atom                  positions (alat units)
         1           H   tau(   1) = (   0.0000000   0.0000000   0.0000000  )

     number of k points=    10  gaussian smearing, width (Ry)=  0.0100
                       cart. coord. in units 2pi/alat
        k(    1) = (   0.0000000   0.0000000   0.0000000), wk =   0.0156250
        k(    2) = (   0.0000000   0.0000000   0.2500000), wk =   0.0937500
        k(    3) = (   0.0000000   0.0000000  -0.5000000), wk =   0.0468750
        k(    4) = (   0.0000000   0.2500000   0.2500000), wk =   0.1875000
        k(    5) = (   0.0000000   0.2500000  -0.5000000), wk =   0.1875000
        k(    6) = (   0.0000000  -0.5000000  -0.5000000), wk =   0.0468750
        k(    7) = (   0.2500000   0.2500000   0.2500000), wk =   0.1250000
        k(    8) = (   0.2500000   0.2500000  -0.5000000), wk =   0.1875000
        k(    9) = (   0.2500000  -0.5000000  -0.5000000), wk =   0.0937500
        k(   10) = (  -0.5000000  -0.5000000  -0.5000000), wk =   0.0156250

     Dense  grid:   322453 G-vectors     FFT dimensions: (  90,  90,  90)

     Estimated max dynamical RAM per process >     792.75MB

     Initial potential from superposition of free atoms

     starting charge    0.99999, renormalised to    1.00000

     negative rho (up, down):  8.778E-05 0.000E+00
     Starting wfc are    2 randomized atomic wfcs +    8 random wfc
     Checking if some PAW data can be deallocated... 

     total cpu time spent up to now is        4.4 secs

     per-process dynamical memory:   444.9 Mb

     Self-consistent Calculation

     iteration #  1     ecut=    50.00 Ry     beta=0.70
     Davidson diagonalization with overlap
     ethr =  1.00E-02,  avg # of iterations =  7.7

     Threshold (ethr) on eigenvalues was too large:
     Diagonalizing with lowered threshold

     Davidson diagonalization with overlap
     c_bands:  1 eigenvalues not converged
     c_bands:  1 eigenvalues not converged
     c_bands:  1 eigenvalues not converged
     c_bands:  1 eigenvalues not converged
     ethr =  1.96E-09,  avg # of iterations = 18.9

     negative rho (up, down):  3.230E-05 0.000E+00

     total cpu time spent up to now is       76.0 secs

     End of self-consistent calculation

          k = 0.0000 0.0000 0.0000 ( 40339 PWs)   bands (ev):

    -6.4609  -6.4609  -0.2244  -0.2244   0.8479   0.8480   0.8480   0.8481
     0.8481   0.8482

          k = 0.0000 0.0000 0.2500 ( 40271 PWs)   bands (ev):

    -6.4608  -6.4608  -0.1458  -0.1458   0.4760   0.4760   0.9064   0.9064
     0.9065   0.9065

          k = 0.0000 0.0000-0.5000 ( 40426 PWs)   bands (ev):

    -6.4608  -6.4608   0.0582   0.0582   0.1261   0.1261   0.9869   0.9869
     0.9870   0.9870

          k = 0.0000 0.2500 0.2500 ( 40292 PWs)   bands (ev):

    -6.4608  -6.4608  -0.0671  -0.0671   0.4824   0.4824   0.6335   0.6335
     0.9614   0.9617

          k = 0.0000 0.2500-0.5000 ( 40306 PWs)   bands (ev):

    -6.4607  -6.4607   0.1430   0.1430   0.1874   0.1874   0.7281   0.7281
     0.9238   0.9246

          k = 0.0000-0.5000-0.5000 ( 40276 PWs)   bands (ev):

    -6.4607  -6.4607   0.3097   0.3097   0.3097   0.3097   0.4908   0.4908
     0.5826   0.5827

          k = 0.2500 0.2500 0.2500 ( 40300 PWs)   bands (ev):

    -6.4607  -6.4607   0.0112   0.0112   0.5566   0.5566   0.5566   0.5566
     0.8004   0.8004

          k = 0.2500 0.2500-0.5000 ( 40280 PWs)   bands (ev):

    -6.4607  -6.4607   0.2265   0.2265   0.2513   0.2514   0.6779   0.6780
     0.9437   0.9449

          k = 0.2500-0.5000-0.5000 ( 40228 PWs)   bands (ev):

    -6.4606  -6.4606   0.3861   0.3861   0.3862   0.3862   0.5017   0.5018
     0.6762   0.6763

          k =-0.5000-0.5000-0.5000 ( 40008 PWs)   bands (ev):

    -6.4606  -6.4606   0.5150   0.5150   0.5150   0.5150   0.5151   0.5155
     0.9149   0.9235

     the Fermi energy is    -6.4607 ev

!    total energy              =      -0.92344284 Ry
     Harris-Foulkes estimate   =      -0.92344205 Ry
     estimated scf accuracy    <       0.00000002 Ry

     total all-electron energy =        -0.923439 Ry

     The total energy is the sum of the following terms:

     one-electron contribution =      -0.69671728 Ry
     hartree contribution      =       0.43168812 Ry
     xc contribution           =      -0.50248969 Ry
     ewald contribution        =      -0.15014332 Ry
     one-center paw contrib.   =      -0.00013878 Ry
     smearing contrib. (-TS)   =      -0.00564190 Ry

     convergence has been achieved in   1 iterations

     Writing output data file 2343.save
 
     init_run     :      3.76s CPU      4.19s WALL (       1 calls)
     electrons    :     70.57s CPU     72.02s WALL (       1 calls)

     Called by init_run:
     wfcinit      :      3.18s CPU      3.34s WALL (       1 calls)
     potinit      :      0.26s CPU      0.35s WALL (       1 calls)

     Called by electrons:
     c_bands      :     64.88s CPU     65.77s WALL (       2 calls)
     sum_band     :      5.39s CPU      5.43s WALL (       2 calls)
     v_of_rho     :      0.34s CPU      0.40s WALL (       2 calls)
     newd         :      0.04s CPU      0.05s WALL (       2 calls)
     PAW_pot      :      0.00s CPU      0.02s WALL (       2 calls)
     mix_rho      :      0.03s CPU      0.03s WALL (       2 calls)

     Called by c_bands:
     init_us_2    :      0.09s CPU      0.09s WALL (      50 calls)
     cegterg      :     64.69s CPU     65.57s WALL (      20 calls)

     Called by sum_band:
     sum_band:bec :      0.00s CPU      0.00s WALL (      20 calls)
     addusdens    :      0.06s CPU      0.08s WALL (       2 calls)

     Called by *egterg:
     h_psi        :     56.55s CPU     56.83s WALL (     296 calls)
     s_psi        :      0.25s CPU      0.25s WALL (     296 calls)
     g_psi        :      0.41s CPU      0.41s WALL (     266 calls)
     cdiaghg      :      0.11s CPU      0.19s WALL (     276 calls)

     Called by h_psi:
     h_psi:pot    :     55.92s CPU     56.16s WALL (     296 calls)
     h_psi:calbec :      0.48s CPU      0.50s WALL (     296 calls)
     vloc_psi     :     55.14s CPU     55.37s WALL (     296 calls)
     add_vuspsi   :      0.29s CPU      0.30s WALL (     296 calls)

     General routines
     calbec       :      0.53s CPU      0.55s WALL (     316 calls)
     fft          :      0.31s CPU      0.43s WALL (      39 calls)
     fftw         :     46.96s CPU     47.14s WALL (    8192 calls)
     davcio       :      0.00s CPU      0.07s WALL (      10 calls)
 
     Parallel routines
     fft_scatter  :      7.91s CPU      7.94s WALL (    8231 calls)
 
     PWSCF        :  1m14.55s CPU     1m29.57s WALL

 
   This run was terminated on:  14:25:58  30Nov2022            

=------------------------------------------------------------------------------=
   JOB DONE.
=------------------------------------------------------------------------------=
Removing 2343 from /home/shaharpit/tmp
rm: cannot remove '/home/shaharpit/tmp\r/2343\r*': No such file or directory
