
     Program PWSCF v.6.1 (svn rev. 13369) starts on 13Oct2022 at 17: 4:20 

     This program is part of the open-source Quantum ESPRESSO suite
     for quantum simulation of materials; please cite
         "P. Giannozzi et al., J. Phys.:Condens. Matter 21 395502 (2009);
          URL http://www.quantum-espresso.org", 
     in publications or presentations arising from this work. More details at
     http://www.quantum-espresso.org/quote

     Parallel version (MPI), running on    16 processors
     R & G space division:  proc/nbgrp/npool/nimage =      16
     Reading input from ./fcc_125.in

     Current dimensions of program PWSCF are:
     Max number of different atomic species (ntypx) = 10
     Max number of k-points (npk) =  40000
     Max angular momentum in pseudopotentials (lmaxx) =  3
               file Gd.rel-pbe-spdn-kjpaw_psl.1.0.0.UPF: wavefunction(s)  5P 5P renormalized
               file H.pbe-kjpaw_psl.0.1.UPF: wavefunction(s)  1S renormalized

     Subspace diagonalization in iterative solution of the eigenvalue problem:
     a serial algorithm will be used

 
     Parallelization info
     --------------------
     sticks:   dense  smooth     PW     G-vecs:    dense   smooth      PW
     Min          99      99     28                 2995     2995     467
     Max         100     100     30                 2998     2998     470
     Sum        1597    1597    465                47937    47937    7497
 


     bravais-lattice index     =            0
     lattice parameter (alat)  =      10.0212  a.u.
     unit-cell volume          =    1006.3788 (a.u.)^3
     number of atoms/cell      =           14
     number of atomic types    =            2
     number of electrons       =        54.00
     number of Kohn-Sham states=           64
     kinetic-energy cutoff     =      50.0000  Ry
     charge density cutoff     =     200.0000  Ry
     convergence threshold     =      1.0E-06
     mixing beta               =       0.7000
     number of iterations used =            8  plain     mixing
     Exchange-correlation      =  SLA  PW   PBX  PBC ( 1  4  3  4 0 0)
     nstep                     =          150

     Non magnetic calculation with spin-orbit


     celldm(1)=  10.021218  celldm(2)=   0.000000  celldm(3)=   0.000000
     celldm(4)=   0.000000  celldm(5)=   0.000000  celldm(6)=   0.000000

     crystal axes: (cart. coord. in units of alat)
               a(1) = (   1.000000   0.000000   0.000000 )  
               a(2) = (   0.000000   1.000000   0.000000 )  
               a(3) = (   0.000000   0.000000   1.000000 )  

     reciprocal axes: (cart. coord. in units 2 pi/alat)
               b(1) = (  1.000000  0.000000  0.000000 )  
               b(2) = (  0.000000  1.000000  0.000000 )  
               b(3) = (  0.000000  0.000000  1.000000 )  


     PseudoPot. # 1 for Gd read from file:
     /home/shaharpit/MeamGdH/dft/qe_potentials/Gd.rel-pbe-spdn-kjpaw_psl.1.0.0.UPF
     MD5 check sum: cf50ec46d1536b4a0251694df1946a53
     Pseudo is Projector augmented-wave + core cor, Zval = 11.0
     Generated using "atomic" code by A. Dal Corso  v.6.2.2
     Shape of augmentation charge: PSQ
     Using radial grid of 1263 points, 10 beta functions with: 
                l(1) =   0
                l(2) =   0
                l(3) =   1
                l(4) =   1
                l(5) =   1
                l(6) =   1
                l(7) =   2
                l(8) =   2
                l(9) =   2
               l(10) =   2
     Q(r) pseudized with 0 coefficients 


     PseudoPot. # 2 for  H read from file:
     /home/shaharpit/MeamGdH/dft/qe_potentials/H.pbe-kjpaw_psl.0.1.UPF
     MD5 check sum: fbb168fef676c0aaadbafd73f5b1efa8
     Pseudo is Projector augmented-wave, Zval =  1.0
     Generated using "atomic" code by A. Dal Corso  v.5.0.2 svn rev. 9415
     Shape of augmentation charge: PSQ
     Using radial grid of  929 points,  2 beta functions with: 
                l(1) =   0
                l(2) =   0
     Q(r) pseudized with 0 coefficients 


     atomic species   valence    mass     pseudopotential
        Gd            11.00   157.25000     Gd( 1.00)
        H              1.00     1.00794      H( 1.00)

      2 Sym. Ops. (no inversion) found



   Cartesian axes

     site n.     atom                  positions (alat units)
         1           Gd  tau(   1) = (   0.0000000   0.0000000   0.0000000  )
         2           Gd  tau(   2) = (   0.0000000   0.5000000   0.5000000  )
         3           Gd  tau(   3) = (   0.5000000   0.0000000   0.5000000  )
         4           Gd  tau(   4) = (   0.5000000   0.5000000   0.0000000  )
         5           H   tau(   5) = (   0.2500000   0.7539000   0.7539000  )
         6           H   tau(   6) = (   0.2500000   0.7501000   0.2500000  )
         7           H   tau(   7) = (   0.2500000   0.2500000   0.2500000  )
         8           H   tau(   8) = (   0.2500000   0.2500000   0.7501000  )
         9           H   tau(   9) = (   0.7501000   0.2500000   0.7501000  )
        10           H   tau(  10) = (   0.7501000   0.2500000   0.2500000  )
        11           H   tau(  11) = (   0.7501000   0.7501000   0.2500000  )
        12           H   tau(  12) = (   0.7501000   0.7501000   0.7501000  )
        13           H   tau(  13) = (   0.5001000   0.5001000   0.5001000  )
        14           H   tau(  14) = (   0.5001000   0.0000000   0.0000000  )

     number of k points=    24  gaussian smearing, width (Ry)=  0.0100
                       cart. coord. in units 2pi/alat
        k(    1) = (   0.0000000   0.0000000   0.0000000), wk =   0.0156250
        k(    2) = (   0.0000000   0.0000000   0.2500000), wk =   0.0625000
        k(    3) = (   0.0000000   0.0000000  -0.5000000), wk =   0.0312500
        k(    4) = (   0.0000000   0.2500000   0.2500000), wk =   0.0312500
        k(    5) = (   0.0000000   0.2500000  -0.5000000), wk =   0.0625000
        k(    6) = (   0.0000000  -0.5000000  -0.5000000), wk =   0.0156250
        k(    7) = (   0.2500000   0.2500000   0.2500000), wk =   0.0312500
        k(    8) = (   0.2500000   0.2500000  -0.5000000), wk =   0.0625000
        k(    9) = (   0.2500000  -0.5000000  -0.5000000), wk =   0.0312500
        k(   10) = (  -0.5000000  -0.5000000  -0.5000000), wk =   0.0156250
        k(   11) = (   0.2500000   0.0000000   0.0000000), wk =   0.0312500
        k(   12) = (  -0.5000000   0.0000000   0.0000000), wk =   0.0156250
        k(   13) = (   0.0000000   0.2500000  -0.2500000), wk =   0.0312500
        k(   14) = (   0.2500000   0.0000000  -0.2500000), wk =   0.0625000
        k(   15) = (  -0.2500000   0.0000000  -0.2500000), wk =   0.0625000
        k(   16) = (   0.2500000   0.0000000   0.5000000), wk =   0.0625000
        k(   17) = (  -0.5000000  -0.2500000   0.0000000), wk =   0.0625000
        k(   18) = (  -0.5000000   0.0000000   0.5000000), wk =   0.0312500
        k(   19) = (  -0.2500000   0.2500000  -0.2500000), wk =   0.0625000
        k(   20) = (   0.2500000  -0.2500000  -0.2500000), wk =   0.0312500
        k(   21) = (  -0.2500000   0.2500000   0.5000000), wk =   0.0625000
        k(   22) = (  -0.5000000  -0.2500000   0.2500000), wk =   0.0312500
        k(   23) = (   0.5000000  -0.2500000  -0.2500000), wk =   0.0312500
        k(   24) = (  -0.5000000   0.2500000   0.5000000), wk =   0.0625000

     Dense  grid:    47937 G-vectors     FFT dimensions: (  45,  45,  45)

     Estimated max dynamical RAM per process >      32.47MB

     Estimated total allocated dynamical RAM >     519.54MB

     Check: negative/imaginary core charge=   -0.000002    0.000000

     Initial potential from superposition of free atoms

     starting charge   53.92372, renormalised to   54.00000
     Starting wfc are  124 randomized atomic wfcs
     Checking if some PAW data can be deallocated... 

     total cpu time spent up to now is        3.6 secs

     per-process dynamical memory:    83.7 Mb

     Self-consistent Calculation

     iteration #  1     ecut=    50.00 Ry     beta=0.70
     Davidson diagonalization with overlap
     ethr =  1.00E-02,  avg # of iterations =  2.3

     total cpu time spent up to now is        7.4 secs

     total energy              =   -2250.66129790 Ry
     Harris-Foulkes estimate   =   -2251.01477770 Ry
     estimated scf accuracy    <       0.62752656 Ry

     iteration #  2     ecut=    50.00 Ry     beta=0.70
     Davidson diagonalization with overlap
     ethr =  1.16E-03,  avg # of iterations =  2.9

     total cpu time spent up to now is       11.6 secs

     total energy              =   -2250.77344775 Ry
     Harris-Foulkes estimate   =   -2250.79045228 Ry
     estimated scf accuracy    <       0.02475677 Ry

     iteration #  3     ecut=    50.00 Ry     beta=0.70
     Davidson diagonalization with overlap
     ethr =  4.58E-05,  avg # of iterations =  4.0

     total cpu time spent up to now is       16.8 secs

     total energy              =   -2250.78048873 Ry
     Harris-Foulkes estimate   =   -2250.78508312 Ry
     estimated scf accuracy    <       0.00906054 Ry

     iteration #  4     ecut=    50.00 Ry     beta=0.70
     Davidson diagonalization with overlap
     ethr =  1.68E-05,  avg # of iterations =  3.5

     total cpu time spent up to now is       21.4 secs

     total energy              =   -2250.78269086 Ry
     Harris-Foulkes estimate   =   -2250.78292048 Ry
     estimated scf accuracy    <       0.00060052 Ry

     iteration #  5     ecut=    50.00 Ry     beta=0.70
     Davidson diagonalization with overlap
     ethr =  1.11E-06,  avg # of iterations =  5.8

     total cpu time spent up to now is       26.8 secs

     total energy              =   -2250.78283554 Ry
     Harris-Foulkes estimate   =   -2250.78283480 Ry
     estimated scf accuracy    <       0.00001392 Ry

     iteration #  6     ecut=    50.00 Ry     beta=0.70
     Davidson diagonalization with overlap
     ethr =  2.58E-08,  avg # of iterations =  3.3

     total cpu time spent up to now is       31.4 secs

     total energy              =   -2250.78283993 Ry
     Harris-Foulkes estimate   =   -2250.78284026 Ry
     estimated scf accuracy    <       0.00000167 Ry

     iteration #  7     ecut=    50.00 Ry     beta=0.70
     Davidson diagonalization with overlap
     ethr =  3.09E-09,  avg # of iterations =  3.7

     total cpu time spent up to now is       36.1 secs

     total energy              =   -2250.78284039 Ry
     Harris-Foulkes estimate   =   -2250.78284083 Ry
     estimated scf accuracy    <       0.00000125 Ry

     iteration #  8     ecut=    50.00 Ry     beta=0.70
     Davidson diagonalization with overlap
     ethr =  2.32E-09,  avg # of iterations =  2.9

     total cpu time spent up to now is       40.2 secs

     End of self-consistent calculation

          k = 0.0000 0.0000 0.0000 (  6031 PWs)   bands (ev):

   -34.4411 -34.4411 -34.4022 -34.4022 -34.3332 -34.3332 -34.3039 -34.3039
   -15.2621 -15.2621 -15.2231 -15.2231 -15.1647 -15.1647 -14.9775 -14.9775
   -11.2021 -11.2021 -11.1512 -11.1512 -11.1000 -11.1000 -10.8511 -10.8511
   -10.8357 -10.8357 -10.8248 -10.8248 -10.6052 -10.6052 -10.5768 -10.5768
     1.2846   1.2846   4.4917   4.4917   4.6783   4.6783   4.6792   4.6792
     4.6820   4.6820   6.0403   6.0403   6.2353   6.2353   6.2417   6.2417
     6.2532   6.2532   7.9297   7.9297   8.3758   8.3758  10.7965  10.7965
    10.8034  10.8034  10.9598  10.9598  13.3585  13.3585  13.3593  13.3593

          k = 0.0000 0.0000 0.2500 (  6023 PWs)   bands (ev):

   -34.4344 -34.4344 -34.4068 -34.4068 -34.3322 -34.3322 -34.3068 -34.3068
   -15.2480 -15.2479 -15.2239 -15.2238 -15.1462 -15.1462 -15.0099 -15.0098
   -11.1561 -11.1558 -11.1240 -11.1238 -11.0546 -11.0544 -10.8944 -10.8940
   -10.8642 -10.8642 -10.7962 -10.7962 -10.6744 -10.6744 -10.6288 -10.6287
     1.7419   1.7421   4.1587   4.1593   4.8855   4.8855   4.8872   4.8881
     4.9748   4.9748   5.9861   5.9897   5.9907   5.9954   6.0940   6.1013
     6.3271   6.3274   7.2233   7.2236   8.6868   8.6869  11.0656  11.0659
    11.1981  11.2000  11.8537  11.8540  12.5000  12.5019  12.8222  12.8230

          k = 0.0000 0.0000-0.5000 (  5942 PWs)   bands (ev):

   -34.4198 -34.4198 -34.4193 -34.4193 -34.3310 -34.3310 -34.3101 -34.3101
   -15.2314 -15.2314 -15.2282 -15.2282 -15.0921 -15.0921 -15.0764 -15.0764
   -11.0910 -11.0910 -11.0844 -11.0844 -10.9723 -10.9723 -10.9721 -10.9721
   -10.8521 -10.8521 -10.8360 -10.8360 -10.7201 -10.7201 -10.7088 -10.7088
     2.9096   2.9096   2.9232   2.9232   5.3061   5.3061   5.3078   5.3078
     5.5385   5.5385   5.5401   5.5401   5.8405   5.8405   5.8583   5.8583
     6.5080   6.5080   6.5203   6.5203  10.1247  10.1247  10.1325  10.1325
    11.5352  11.5352  11.5360  11.5360  11.9130  11.9132  11.9140  11.9141

          k = 0.0000 0.2500 0.2500 (  6016 PWs)   bands (ev):

   -34.4293 -34.4293 -34.4097 -34.4097 -34.3323 -34.3323 -34.3089 -34.3089
   -15.2345 -15.2345 -15.2217 -15.2216 -15.1382 -15.1382 -15.0370 -15.0370
   -11.1283 -11.1283 -11.1118 -11.1117 -11.0327 -11.0326 -10.9049 -10.9049
   -10.8440 -10.8440 -10.7995 -10.7995 -10.7604 -10.7603 -10.6371 -10.6371
     2.1515   2.1516   4.1510   4.1510   4.9230   4.9230   5.0639   5.0639
     5.1343   5.1344   5.2057   5.2059   5.8550   5.8551   6.5490   6.5493
     6.5698   6.5705   6.7051   6.7053   9.0747   9.0747  10.8243  10.8243
    11.3421  11.3422  12.3311  12.3312  12.4400  12.4400  12.6717  12.7240

          k = 0.0000 0.2500-0.5000 (  6018 PWs)   bands (ev):

   -34.4185 -34.4185 -34.4183 -34.4183 -34.3323 -34.3323 -34.3111 -34.3111
   -15.2215 -15.2214 -15.2194 -15.2194 -15.1054 -15.1053 -15.0886 -15.0885
   -11.0990 -11.0986 -11.0958 -11.0954 -10.9583 -10.9578 -10.9541 -10.9537
   -10.8599 -10.8596 -10.8511 -10.8508 -10.7167 -10.7164 -10.7113 -10.7111
     3.1992   3.1996   3.2122   3.2126   4.9517   4.9534   4.9540   4.9557
     5.5124   5.5141   5.5150   5.5170   5.7917   5.7923   5.8055   5.8063
     6.7652   6.7655   6.7776   6.7780  10.0315  10.0320  10.0351  10.0357
    11.7710  11.7715  11.7718  11.7724  12.0622  12.0637  12.0692  12.0710

          k = 0.0000-0.5000-0.5000 (  6024 PWs)   bands (ev):

   -34.4172 -34.4172 -34.4172 -34.4172 -34.3336 -34.3336 -34.3121 -34.3121
   -15.2085 -15.2085 -15.2085 -15.2085 -15.1216 -15.1216 -15.1028 -15.1028
   -11.0903 -11.0903 -11.0899 -11.0899 -10.9884 -10.9884 -10.9838 -10.9838
   -10.8231 -10.8231 -10.8222 -10.8222 -10.7293 -10.7293 -10.7257 -10.7257
     3.7140   3.7140   3.7285   3.7285   4.3405   4.3405   4.3419   4.3419
     5.6286   5.6286   5.6432   5.6432   5.6822   5.6822   5.6833   5.6833
     7.0324   7.0324   7.0457   7.0457   9.9385   9.9385   9.9385   9.9385
    11.6063  11.6063  11.6067  11.6068  12.1388  12.1389  12.1449  12.1450

          k = 0.2500 0.2500 0.2500 (  6007 PWs)   bands (ev):

   -34.4271 -34.4271 -34.4096 -34.4096 -34.3339 -34.3339 -34.3094 -34.3094
   -15.2355 -15.2355 -15.2047 -15.2046 -15.1399 -15.1399 -15.0581 -15.0580
   -11.1393 -11.1388 -11.0936 -11.0934 -11.0438 -11.0438 -10.9001 -10.8999
   -10.8347 -10.8346 -10.7977 -10.7977 -10.7867 -10.7866 -10.6308 -10.6308
     2.4806   2.4810   4.3350   4.3357   4.6659   4.6662   4.6907   4.6909
     5.0529   5.0536   5.3958   5.3968   5.6733   5.6735   6.3591   6.3597
     6.6656   6.6658   7.4348   7.4354   9.3332   9.3332  11.0574  11.0574
    11.2544  11.2549  11.9609  11.9617  12.0068  12.0078  12.0950  12.0951

          k = 0.2500 0.2500-0.5000 (  6004 PWs)   bands (ev):

   -34.4178 -34.4178 -34.4177 -34.4177 -34.3329 -34.3329 -34.3115 -34.3115
   -15.2169 -15.2168 -15.2156 -15.2156 -15.1150 -15.1149 -15.0974 -15.0974
   -11.1180 -11.1175 -11.1143 -11.1141 -10.9988 -10.9984 -10.9977 -10.9974
   -10.8122 -10.8119 -10.8067 -10.8065 -10.6966 -10.6964 -10.6909 -10.6906
     3.3865   3.3874   3.3985   3.3990   4.5513   4.5525   4.5593   4.5604
     5.3650   5.3664   5.3773   5.3786   5.9395   5.9403   5.9458   5.9471
     7.3115   7.3120   7.3261   7.3266  10.2411  10.2414  10.2453  10.2460
    11.3163  11.3173  11.3183  11.3196  11.5889  11.5892  11.5906  11.5915

          k = 0.2500-0.5000-0.5000 (  6000 PWs)   bands (ev):

   -34.4171 -34.4171 -34.4171 -34.4171 -34.3335 -34.3335 -34.3120 -34.3120
   -15.2117 -15.2117 -15.2117 -15.2116 -15.1252 -15.1251 -15.1064 -15.1064
   -11.1282 -11.1279 -11.1258 -11.1255 -11.0381 -11.0379 -11.0378 -11.0377
   -10.7637 -10.7636 -10.7601 -10.7599 -10.6880 -10.6877 -10.6827 -10.6824
     3.7869   3.7876   3.8018   3.8024   4.0151   4.0152   4.0159   4.0161
     5.2372   5.2383   5.2501   5.2511   6.1026   6.1029   6.1039   6.1043
     7.8903   7.8911   7.9063   7.9072  10.3018  10.3018  10.3023  10.3023
    10.9638  10.9662  10.9662  10.9681  11.3417  11.3419  11.3430  11.3432

          k =-0.5000-0.5000-0.5000 (  6008 PWs)   bands (ev):

   -34.4171 -34.4171 -34.4171 -34.4171 -34.3334 -34.3334 -34.3120 -34.3120
   -15.2148 -15.2148 -15.2148 -15.2148 -15.1287 -15.1287 -15.1100 -15.1100
   -11.1590 -11.1590 -11.1555 -11.1555 -11.0741 -11.0741 -11.0721 -11.0721
   -10.7206 -10.7206 -10.7152 -10.7152 -10.6522 -10.6522 -10.6458 -10.6458
     3.7845   3.7845   3.7853   3.7853   3.8523   3.8523   3.8671   3.8671
     5.0166   5.0166   5.0274   5.0274   6.4305   6.4305   6.4323   6.4323
     8.9961   8.9961   9.0106   9.0106  10.5889  10.5889  10.5893  10.5894
    10.7731  10.7733  10.7742  10.7745  10.8389  10.8391  10.8411  10.8417

          k = 0.2500 0.0000 0.0000 (  6023 PWs)   bands (ev):

   -34.4369 -34.4369 -34.4022 -34.4022 -34.3369 -34.3369 -34.3043 -34.3043
   -15.2611 -15.2611 -15.1941 -15.1940 -15.1640 -15.1639 -15.0088 -15.0087
   -11.1801 -11.1797 -11.0821 -11.0819 -11.0664 -11.0664 -10.8706 -10.8702
   -10.8681 -10.8681 -10.8242 -10.8242 -10.6964 -10.6962 -10.6048 -10.6048
     1.7239   1.7243   4.7522   4.7527   4.7738   4.7739   4.8824   4.8825
     4.8961   4.8970   4.9772   4.9773   5.9960   5.9960   6.0072   6.0087
     7.2265   7.2269   7.3847   7.3852   8.3567   8.3568  11.0607  11.0610
    11.1918  11.1946  11.9855  11.9859  12.5035  12.5059  12.5401  12.5402

          k =-0.5000 0.0000 0.0000 (  5942 PWs)   bands (ev):

   -34.4324 -34.4324 -34.4021 -34.4021 -34.3411 -34.3411 -34.3046 -34.3046
   -15.2601 -15.2601 -15.1645 -15.1645 -15.1467 -15.1467 -15.0570 -15.0570
   -11.1512 -11.1512 -10.9997 -10.9997 -10.9441 -10.9441 -10.9181 -10.9181
   -10.9137 -10.9137 -10.8796 -10.8796 -10.7881 -10.7881 -10.6423 -10.6423
     2.5202   2.5202   3.6270   3.6270   5.0863   5.0863   5.2816   5.2816
     5.3786   5.3786   5.5168   5.5168   5.5628   5.5628   5.7977   5.7977
     5.9074   5.9074   8.3921   8.3921   9.0091   9.0091  10.4228  10.4228
    11.2703  11.2703  11.7576  11.7577  11.8737  11.8740  11.9382  11.9386

          k = 0.0000 0.2500-0.2500 (  6016 PWs)   bands (ev):

   -34.4293 -34.4293 -34.4097 -34.4097 -34.3323 -34.3323 -34.3089 -34.3089
   -15.2345 -15.2344 -15.2218 -15.2215 -15.1382 -15.1382 -15.0370 -15.0369
   -11.1285 -11.1281 -11.1118 -11.1116 -11.0328 -11.0325 -10.9053 -10.9046
   -10.8442 -10.8438 -10.7996 -10.7994 -10.7605 -10.7602 -10.6372 -10.6371
     2.1514   2.1517   4.1502   4.1516   4.9222   4.9236   5.0616   5.0660
     5.1305   5.1383   5.2047   5.2077   5.8550   5.8554   6.5504   6.5507
     6.5691   6.5699   6.7041   6.7044   9.0746   9.0747  10.8239  10.8246
    11.3408  11.3427  12.3285  12.3332  12.4402  12.4403  12.6720  12.7208

          k = 0.2500 0.0000-0.2500 (  6016 PWs)   bands (ev):

   -34.4313 -34.4313 -34.4067 -34.4067 -34.3349 -34.3349 -34.3074 -34.3074
   -15.2467 -15.2466 -15.2007 -15.2006 -15.1481 -15.1480 -15.0360 -15.0359
   -11.1481 -11.1476 -11.0791 -11.0789 -11.0446 -11.0445 -10.8697 -10.8693
   -10.8672 -10.8670 -10.8227 -10.8224 -10.7581 -10.7579 -10.6301 -10.6300
     2.1359   2.1363   4.3803   4.3820   4.8591   4.8599   4.9450   4.9465
     5.1306   5.1315   5.1476   5.1478   5.8506   5.8557   6.0344   6.0391
     6.7031   6.7037   7.2485   7.2491   8.9401   8.9403  10.8218  10.8225
    11.3470  11.3481  12.3290  12.3314  12.4952  12.4962  12.5340  12.5368

          k =-0.2500 0.0000-0.2500 (  6016 PWs)   bands (ev):

   -34.4313 -34.4313 -34.4067 -34.4067 -34.3349 -34.3349 -34.3074 -34.3074
   -15.2467 -15.2466 -15.2008 -15.2007 -15.1481 -15.1480 -15.0359 -15.0359
   -11.1483 -11.1477 -11.0794 -11.0792 -11.0447 -11.0446 -10.8693 -10.8692
   -10.8673 -10.8668 -10.8227 -10.8224 -10.7580 -10.7577 -10.6299 -10.6298
     2.1337   2.1341   4.3833   4.3850   4.8609   4.8620   4.9353   4.9366
     5.1285   5.1292   5.1447   5.1458   5.8530   5.8580   6.0424   6.0471
     6.7085   6.7091   7.2532   7.2538   8.9412   8.9413  10.8118  10.8125
    11.3444  11.3453  12.3280  12.3297  12.4908  12.4918  12.5346  12.5368

          k = 0.2500 0.0000 0.5000 (  6018 PWs)   bands (ev):

   -34.4185 -34.4185 -34.4183 -34.4183 -34.3322 -34.3322 -34.3111 -34.3111
   -15.2211 -15.2210 -15.2190 -15.2189 -15.1059 -15.1058 -15.0891 -15.0890
   -11.0943 -11.0940 -11.0897 -11.0893 -10.9708 -10.9707 -10.9695 -10.9694
   -10.8465 -10.8462 -10.8388 -10.8386 -10.7212 -10.7210 -10.7149 -10.7147
     3.1944   3.1950   3.2063   3.2069   4.9709   4.9719   4.9786   4.9798
     5.5125   5.5136   5.5177   5.5190   5.7936   5.7947   5.8083   5.8095
     6.7243   6.7250   6.7412   6.7419  10.0598  10.0601  10.0663  10.0667
    11.8595  11.8608  11.8651  11.8664  12.0015  12.0019  12.0055  12.0061

          k =-0.5000-0.2500 0.0000 (  6018 PWs)   bands (ev):

   -34.4280 -34.4280 -34.4065 -34.4065 -34.3378 -34.3378 -34.3079 -34.3079
   -15.2455 -15.2454 -15.1653 -15.1652 -15.1507 -15.1507 -15.0735 -15.0735
   -11.1390 -11.1384 -11.0325 -11.0325 -10.9617 -10.9613 -10.9516 -10.9514
   -10.8689 -10.8685 -10.8566 -10.8565 -10.7694 -10.7692 -10.6662 -10.6658
     2.8514   2.8515   3.8444   3.8449   4.5995   4.6021   5.0695   5.0726
     5.4759   5.4803   5.5469   5.5509   5.7485   5.7488   5.8507   5.8514
     5.9002   5.9024   8.0006   8.0009   9.3455   9.3456  10.3116  10.3117
    11.6826  11.6832  11.8951  11.9002  12.0479  12.0525  12.0571  12.0577

          k =-0.5000 0.0000 0.5000 (  6024 PWs)   bands (ev):

   -34.4172 -34.4172 -34.4172 -34.4172 -34.3335 -34.3335 -34.3121 -34.3121
   -15.2074 -15.2074 -15.2073 -15.2073 -15.1229 -15.1229 -15.1041 -15.1041
   -11.0765 -11.0765 -11.0711 -11.0711 -11.0149 -11.0149 -11.0102 -11.0102
   -10.8036 -10.8036 -10.7917 -10.7917 -10.7482 -10.7482 -10.7364 -10.7364
     3.6801   3.6801   3.6842   3.6842   4.3998   4.3998   4.4156   4.4156
     5.6128   5.6128   5.6259   5.6259   5.7017   5.7017   5.7044   5.7044
     6.9505   6.9505   6.9714   6.9714  10.0206  10.0206  10.0211  10.0211
    11.8378  11.8378  11.8399  11.8400  11.8926  11.8926  11.9002  11.9002

          k =-0.2500 0.2500-0.2500 (  6007 PWs)   bands (ev):

   -34.4271 -34.4271 -34.4096 -34.4096 -34.3339 -34.3339 -34.3094 -34.3094
   -15.2356 -15.2355 -15.2047 -15.2045 -15.1399 -15.1399 -15.0582 -15.0581
   -11.1391 -11.1386 -11.0933 -11.0930 -11.0440 -11.0437 -10.9001 -10.8999
   -10.8351 -10.8345 -10.7980 -10.7979 -10.7868 -10.7866 -10.6310 -10.6309
     2.4832   2.4837   4.3378   4.3406   4.6622   4.6634   4.6909   4.6919
     5.0484   5.0530   5.4013   5.4022   5.6729   5.6748   6.3507   6.3513
     6.6601   6.6606   7.4339   7.4346   9.3334   9.3335  11.0588  11.0594
    11.2560  11.2567  11.9583  11.9733  12.0071  12.0082  12.0881  12.1021

          k = 0.2500-0.2500-0.2500 (  6007 PWs)   bands (ev):

   -34.4271 -34.4271 -34.4096 -34.4096 -34.3340 -34.3340 -34.3094 -34.3094
   -15.2355 -15.2355 -15.2045 -15.2045 -15.1399 -15.1399 -15.0582 -15.0581
   -11.1388 -11.1385 -11.0929 -11.0929 -11.0438 -11.0438 -10.9001 -10.9000
   -10.8349 -10.8348 -10.7981 -10.7979 -10.7872 -10.7869 -10.6311 -10.6311
     2.4858   2.4863   4.3436   4.3442   4.6589   4.6594   4.6915   4.6917
     5.0480   5.0487   5.4070   5.4081   5.6735   5.6737   6.3408   6.3415
     6.6570   6.6571   7.4328   7.4334   9.3337   9.3338  11.0611  11.0611
    11.2581  11.2587  11.9710  11.9715  12.0058  12.0075  12.0954  12.0955

          k =-0.2500 0.2500 0.5000 (  6004 PWs)   bands (ev):

   -34.4178 -34.4178 -34.4177 -34.4177 -34.3329 -34.3329 -34.3115 -34.3115
   -15.2168 -15.2168 -15.2156 -15.2155 -15.1150 -15.1150 -15.0975 -15.0974
   -11.1176 -11.1174 -11.1142 -11.1137 -10.9988 -10.9985 -10.9979 -10.9975
   -10.8123 -10.8120 -10.8069 -10.8066 -10.6968 -10.6965 -10.6910 -10.6908
     3.3910   3.3915   3.4027   3.4035   4.5474   4.5485   4.5553   4.5566
     5.3672   5.3685   5.3800   5.3813   5.9343   5.9356   5.9408   5.9417
     7.3118   7.3122   7.3257   7.3262  10.2410  10.2417  10.2454  10.2457
    11.3160  11.3179  11.3185  11.3196  11.5855  11.5865  11.5879  11.5884

          k =-0.5000-0.2500 0.2500 (  6004 PWs)   bands (ev):

   -34.4248 -34.4248 -34.4096 -34.4096 -34.3358 -34.3358 -34.3098 -34.3098
   -15.2366 -15.2365 -15.1799 -15.1798 -15.1423 -15.1423 -15.0862 -15.0862
   -11.1491 -11.1485 -11.0543 -11.0541 -11.0356 -11.0351 -10.9848 -10.9845
   -10.8267 -10.8260 -10.7823 -10.7822 -10.7443 -10.7442 -10.6584 -10.6580
     3.1003   3.1003   3.8722   3.8728   4.5135   4.5201   4.5785   4.5795
     4.9617   4.9682   5.5552   5.5558   5.9148   5.9171   5.9838   5.9848
     6.7475   6.7480   8.2458   8.2463   9.7072   9.7072  10.4262  10.4264
    11.1982  11.2017  11.4589  11.4589  11.4694  11.4707  11.6520  11.6521

          k = 0.5000-0.2500-0.2500 (  6004 PWs)   bands (ev):

   -34.4248 -34.4248 -34.4096 -34.4096 -34.3358 -34.3358 -34.3098 -34.3098
   -15.2365 -15.2365 -15.1799 -15.1799 -15.1423 -15.1423 -15.0862 -15.0862
   -11.1488 -11.1488 -11.0542 -11.0542 -11.0353 -11.0353 -10.9847 -10.9846
   -10.8263 -10.8263 -10.7823 -10.7823 -10.7443 -10.7443 -10.6582 -10.6582
     3.1003   3.1003   3.8723   3.8724   4.5177   4.5178   4.5785   4.5787
     4.9647   4.9648   5.5552   5.5552   5.9156   5.9156   5.9844   5.9845
     6.7482   6.7482   8.2458   8.2458   9.7072   9.7072  10.4262  10.4262
    11.2003  11.2004  11.4591  11.4592  11.4701  11.4704  11.6520  11.6521

          k =-0.5000 0.2500 0.5000 (  6000 PWs)   bands (ev):

   -34.4171 -34.4171 -34.4171 -34.4171 -34.3335 -34.3335 -34.3120 -34.3120
   -15.2111 -15.2111 -15.2110 -15.2110 -15.1258 -15.1258 -15.1070 -15.1070
   -11.1241 -11.1238 -11.1201 -11.1198 -11.0459 -11.0456 -11.0433 -11.0430
   -10.7592 -10.7590 -10.7523 -10.7521 -10.6936 -10.6934 -10.6859 -10.6858
     3.7396   3.7401   3.7421   3.7425   4.0779   4.0785   4.0928   4.0934
     5.2229   5.2239   5.2323   5.2332   6.1121   6.1127   6.1143   6.1149
     7.8408   7.8412   7.8555   7.8558  10.3855  10.3858  10.3863  10.3867
    11.1233  11.1247  11.1254  11.1266  11.1928  11.1940  11.1959  11.1971

     the Fermi energy is    10.1785 ev

!    total energy              =   -2250.78284064 Ry
     Harris-Foulkes estimate   =   -2250.78284064 Ry
     estimated scf accuracy    <       0.00000001 Ry

     total all-electron energy =    -90255.126209 Ry

     The total energy is the sum of the following terms:

     one-electron contribution =     -39.84920836 Ry
     hartree contribution      =      41.94203287 Ry
     xc contribution           =    -258.65938761 Ry
     ewald contribution        =    -246.15875126 Ry
     one-center paw contrib.   =   -1748.05504934 Ry
     smearing contrib. (-TS)   =      -0.00247694 Ry

     convergence has been achieved in   8 iterations

     Forces acting on atoms (cartesian axes, Ry/au):

     atom    1 type  1   force =    -0.00053102    0.00082720    0.00082720
     atom    2 type  1   force =     0.00037747    0.00073758    0.00073758
     atom    3 type  1   force =     0.00008210    0.00013730    0.00020105
     atom    4 type  1   force =     0.00008210    0.00020105    0.00013730
     atom    5 type  2   force =    -0.01128131   -0.00327868   -0.00327868
     atom    6 type  2   force =    -0.01140768   -0.00003165    0.00016758
     atom    7 type  2   force =    -0.01139447    0.00015092    0.00015092
     atom    8 type  2   force =    -0.01140768    0.00016758   -0.00003165
     atom    9 type  2   force =     0.01137050    0.00012711   -0.00012568
     atom   10 type  2   force =     0.01135270    0.00041555    0.00041555
     atom   11 type  2   force =     0.01137050   -0.00012568    0.00012711
     atom   12 type  2   force =     0.01138663   -0.00003918   -0.00003918
     atom   13 type  2   force =    -0.00029536    0.00034204    0.00034204
     atom   14 type  2   force =     0.00029552    0.00036887    0.00036887

     Total force =     0.032561     Total SCF correction =     0.000048


     Computing stress (Cartesian axis) and pressure

     Message from routine stres:
     noncollinear stress + GGA not implemented

     BFGS Geometry Optimization

     number of scf cycles    =   1
     number of bfgs steps    =   0

     enthalpy new            =   -2250.7828406412 Ry

     new trust radius        =       0.0121970279 bohr
     new conv_thr            =       0.0000010000 Ry

     new unit-cell volume =   1006.37882 a.u.^3 (   149.12995 Ang^3 )
     density =      7.11605 g/cm^3

CELL_PARAMETERS (angstrom)
   5.303000000   0.000000000   0.000000000
   0.000000000   5.303000000   0.000000000
   0.000000000   0.000000000   5.303000000

ATOMIC_POSITIONS (crystal)
Gd      -0.000052989   0.000082545   0.000082545
Gd       0.000037667   0.500073601   0.500073601
Gd       0.500008192   0.000013701   0.500020062
Gd       0.500008192   0.500020062   0.000013701
H        0.248874257   0.753572826   0.753572826
H        0.248861647   0.750096842   0.250016722
H        0.248862966   0.250015060   0.250015060
H        0.248861647   0.250016722   0.750096842
H        0.751234643   0.250012684   0.750087458
H        0.751232866   0.250041467   0.250041467
H        0.751234643   0.750087458   0.250012684
H        0.751236252   0.750096090   0.750096090
H        0.500070527   0.500134132   0.500134132
H        0.500129489   0.000036809   0.000036809



     Writing output data file 2301.save
     NEW-OLD atomic charge density approx. for the potential

     Check: negative/imaginary core charge=   -0.000002    0.000000

     total cpu time spent up to now is       44.1 secs

     per-process dynamical memory:   126.2 Mb

     Self-consistent Calculation

     iteration #  1     ecut=    50.00 Ry     beta=0.70
     Davidson diagonalization with overlap
     ethr =  1.00E-06,  avg # of iterations =  3.0

     total cpu time spent up to now is       48.8 secs

     total energy              =   -2250.78379833 Ry
     Harris-Foulkes estimate   =   -2250.78388059 Ry
     estimated scf accuracy    <       0.00011724 Ry

     iteration #  2     ecut=    50.00 Ry     beta=0.70
     Davidson diagonalization with overlap
     ethr =  2.17E-07,  avg # of iterations =  4.0

     total cpu time spent up to now is       53.6 secs

     total energy              =   -2250.78381464 Ry
     Harris-Foulkes estimate   =   -2250.78389383 Ry
     estimated scf accuracy    <       0.00016618 Ry

     iteration #  3     ecut=    50.00 Ry     beta=0.70
     Davidson diagonalization with overlap
     ethr =  2.17E-07,  avg # of iterations =  3.3

     total cpu time spent up to now is       58.0 secs

     total energy              =   -2250.78384994 Ry
     Harris-Foulkes estimate   =   -2250.78385032 Ry
     estimated scf accuracy    <       0.00000130 Ry

     iteration #  4     ecut=    50.00 Ry     beta=0.70
     Davidson diagonalization with overlap
     ethr =  2.41E-09,  avg # of iterations =  3.4

     total cpu time spent up to now is       62.4 secs

     End of self-consistent calculation

          k = 0.0000 0.0000 0.0000 (  6031 PWs)   bands (ev):

   -34.4510 -34.4510 -34.4137 -34.4137 -34.3218 -34.3218 -34.2930 -34.2930
   -15.2721 -15.2721 -15.2270 -15.2270 -15.1545 -15.1545 -14.9732 -14.9732
   -11.2079 -11.2079 -11.1519 -11.1519 -11.0985 -11.0985 -10.8567 -10.8567
   -10.8294 -10.8294 -10.8263 -10.8263 -10.6042 -10.6042 -10.5709 -10.5709
     1.2887   1.2887   4.4912   4.4912   4.6790   4.6790   4.6798   4.6798
     4.6828   4.6828   6.0271   6.0271   6.2392   6.2392   6.2428   6.2428
     6.2519   6.2519   7.9298   7.9298   8.3767   8.3767  10.7965  10.7965
    10.8024  10.8024  10.9593  10.9593  13.3576  13.3576  13.3598  13.3598

          k = 0.0000 0.0000 0.2500 (  6023 PWs)   bands (ev):

   -34.4447 -34.4447 -34.4183 -34.4183 -34.3202 -34.3202 -34.2962 -34.2962
   -15.2576 -15.2575 -15.2285 -15.2284 -15.1363 -15.1363 -15.0049 -15.0048
   -11.1614 -11.1612 -11.1249 -11.1247 -11.0551 -11.0549 -10.9007 -10.9004
   -10.8595 -10.8595 -10.7943 -10.7943 -10.6705 -10.6704 -10.6250 -10.6249
     1.7459   1.7460   4.1605   4.1609   4.8861   4.8862   4.8884   4.8891
     4.9754   4.9754   5.9866   5.9903   5.9911   5.9953   6.0926   6.0991
     6.3144   6.3148   7.2241   7.2243   8.6884   8.6886  11.0649  11.0651
    11.1973  11.1990  11.8611  11.8615  12.5003  12.5020  12.8183  12.8190

          k = 0.0000 0.0000-0.5000 (  5942 PWs)   bands (ev):

   -34.4307 -34.4307 -34.4305 -34.4305 -34.3182 -34.3182 -34.2999 -34.2999
   -15.2378 -15.2378 -15.2357 -15.2357 -15.0840 -15.0840 -15.0699 -15.0699
   -11.0923 -11.0923 -11.0869 -11.0869 -10.9810 -10.9810 -10.9808 -10.9808
   -10.8421 -10.8421 -10.8283 -10.8283 -10.7171 -10.7171 -10.7070 -10.7070
     2.9137   2.9137   2.9259   2.9259   5.3071   5.3071   5.3086   5.3086
     5.5396   5.5396   5.5411   5.5411   5.8420   5.8420   5.8581   5.8581
     6.4990   6.4990   6.5099   6.5099  10.1313  10.1313  10.1380  10.1380
    11.5324  11.5324  11.5329  11.5329  11.9122  11.9122  11.9128  11.9128

          k = 0.0000 0.2500 0.2500 (  6016 PWs)   bands (ev):

   -34.4399 -34.4399 -34.4212 -34.4212 -34.3198 -34.3198 -34.2984 -34.2984
   -15.2446 -15.2446 -15.2271 -15.2271 -15.1278 -15.1277 -15.0312 -15.0312
   -11.1348 -11.1347 -11.1135 -11.1134 -11.0310 -11.0310 -10.9113 -10.9113
   -10.8443 -10.8443 -10.7934 -10.7933 -10.7562 -10.7561 -10.6329 -10.6329
     2.1552   2.1552   4.1515   4.1515   4.9246   4.9247   5.0675   5.0676
     5.1339   5.1340   5.2102   5.2102   5.8559   5.8561   6.5369   6.5371
     6.5599   6.5604   6.7054   6.7056   9.0784   9.0784  10.8232  10.8233
    11.3422  11.3423  12.3286  12.3286  12.4422  12.4422  12.6632  12.6635

          k = 0.0000 0.2500-0.5000 (  6018 PWs)   bands (ev):

   -34.4297 -34.4297 -34.4296 -34.4296 -34.3192 -34.3192 -34.3008 -34.3008
   -15.2293 -15.2292 -15.2279 -15.2279 -15.0960 -15.0959 -15.0811 -15.0810
   -11.1033 -11.1030 -11.1008 -11.1005 -10.9589 -10.9586 -10.9552 -10.9549
   -10.8581 -10.8578 -10.8507 -10.8505 -10.7111 -10.7109 -10.7065 -10.7063
     3.2024   3.2027   3.2141   3.2145   4.9560   4.9575   4.9581   4.9596
     5.5141   5.5154   5.5165   5.5180   5.7926   5.7931   5.8052   5.8059
     6.7531   6.7534   6.7641   6.7644  10.0346  10.0350  10.0377  10.0382
    11.7719  11.7725  11.7727  11.7732  12.0607  12.0621  12.0673  12.0688

          k = 0.0000-0.5000-0.5000 (  6024 PWs)   bands (ev):

   -34.4286 -34.4286 -34.4286 -34.4286 -34.3202 -34.3202 -34.3016 -34.3016
   -15.2187 -15.2187 -15.2187 -15.2187 -15.1098 -15.1098 -15.0935 -15.0935
   -11.0990 -11.0990 -11.0986 -11.0986 -10.9790 -10.9790 -10.9751 -10.9751
   -10.8327 -10.8327 -10.8319 -10.8319 -10.7190 -10.7190 -10.7159 -10.7159
     3.7124   3.7124   3.7253   3.7253   4.3511   4.3511   4.3524   4.3524
     5.6362   5.6362   5.6492   5.6492   5.6767   5.6767   5.6784   5.6784
     7.0177   7.0177   7.0295   7.0295   9.9391   9.9391   9.9391   9.9391
    11.6029  11.6029  11.6032  11.6032  12.1435  12.1435  12.1486  12.1486

          k = 0.2500 0.2500 0.2500 (  6007 PWs)   bands (ev):

   -34.4381 -34.4381 -34.4211 -34.4211 -34.3212 -34.3212 -34.2987 -34.2987
   -15.2456 -15.2456 -15.2114 -15.2114 -15.1295 -15.1294 -15.0510 -15.0510
   -11.1451 -11.1448 -11.0954 -11.0952 -11.0426 -11.0426 -10.9067 -10.9066
   -10.8345 -10.8345 -10.7926 -10.7926 -10.7820 -10.7819 -10.6264 -10.6264
     2.4854   2.4858   4.3352   4.3358   4.6636   4.6639   4.6947   4.6949
     5.0549   5.0555   5.3988   5.3997   5.6731   5.6732   6.3541   6.3546
     6.6587   6.6589   7.4274   7.4280   9.3361   9.3361  11.0569  11.0570
    11.2539  11.2543  11.9685  11.9693  12.0064  12.0074  12.0966  12.0967

          k = 0.2500 0.2500-0.5000 (  6004 PWs)   bands (ev):

   -34.4292 -34.4292 -34.4291 -34.4291 -34.3196 -34.3196 -34.3011 -34.3011
   -15.2256 -15.2255 -15.2248 -15.2248 -15.1047 -15.1046 -15.0892 -15.0892
   -11.1217 -11.1213 -11.1188 -11.1187 -10.9990 -10.9987 -10.9984 -10.9982
   -10.8114 -10.8112 -10.8065 -10.8064 -10.6914 -10.6912 -10.6865 -10.6863
     3.3904   3.3912   3.4013   3.4017   4.5525   4.5535   4.5595   4.5605
     5.3707   5.3720   5.3819   5.3831   5.9343   5.9350   5.9401   5.9413
     7.3044   7.3048   7.3175   7.3179  10.2441  10.2443  10.2478  10.2484
    11.3161  11.3168  11.3179  11.3190  11.5871  11.5874  11.5889  11.5896

          k = 0.2500-0.5000-0.5000 (  6000 PWs)   bands (ev):

   -34.4286 -34.4286 -34.4286 -34.4286 -34.3201 -34.3201 -34.3015 -34.3015
   -15.2218 -15.2218 -15.2218 -15.2218 -15.1134 -15.1134 -15.0972 -15.0972
   -11.1342 -11.1339 -11.1324 -11.1321 -11.0343 -11.0342 -11.0341 -11.0340
   -10.7679 -10.7678 -10.7650 -10.7649 -10.6797 -10.6795 -10.6753 -10.6752
     3.7836   3.7841   3.7969   3.7974   4.0242   4.0243   4.0249   4.0252
     5.2425   5.2435   5.2542   5.2551   6.0972   6.0974   6.0984   6.0987
     7.8812   7.8819   7.8957   7.8964  10.3018  10.3018  10.3023  10.3023
    10.9628  10.9648  10.9649  10.9665  11.3432  11.3434  11.3441  11.3442

          k =-0.5000-0.5000-0.5000 (  6008 PWs)   bands (ev):

   -34.4286 -34.4286 -34.4286 -34.4286 -34.3200 -34.3200 -34.3015 -34.3015
   -15.2249 -15.2249 -15.2249 -15.2249 -15.1170 -15.1170 -15.1008 -15.1008
   -11.1634 -11.1634 -11.1607 -11.1607 -11.0717 -11.0717 -11.0703 -11.0703
   -10.7232 -10.7232 -10.7187 -10.7187 -10.6451 -10.6451 -10.6400 -10.6400
     3.7933   3.7933   3.7941   3.7941   3.8462   3.8462   3.8595   3.8595
     5.0235   5.0235   5.0332   5.0332   6.4238   6.4238   6.4254   6.4254
     8.9899   8.9899   9.0027   9.0027  10.5879  10.5879  10.5883  10.5884
    10.7719  10.7721  10.7729  10.7730  10.8378  10.8379  10.8399  10.8403

          k = 0.2500 0.0000 0.0000 (  6023 PWs)   bands (ev):

   -34.4475 -34.4475 -34.4137 -34.4137 -34.3249 -34.3249 -34.2932 -34.2932
   -15.2711 -15.2711 -15.1991 -15.1990 -15.1540 -15.1540 -15.0031 -15.0031
   -11.1868 -11.1865 -11.0830 -11.0828 -11.0643 -11.0642 -10.8702 -10.8701
   -10.8632 -10.8629 -10.8313 -10.8313 -10.6952 -10.6950 -10.5975 -10.5975
     1.7291   1.7295   4.7473   4.7479   4.7719   4.7720   4.8833   4.8833
     4.8963   4.8972   4.9784   4.9785   5.9994   5.9994   6.0064   6.0078
     7.2265   7.2269   7.3765   7.3769   8.3572   8.3572  11.0609  11.0612
    11.1922  11.1946  11.9921  11.9923  12.5032  12.5054  12.5434  12.5434

          k =-0.5000 0.0000 0.0000 (  5942 PWs)   bands (ev):

   -34.4439 -34.4439 -34.4136 -34.4136 -34.3284 -34.3284 -34.2934 -34.2934
   -15.2701 -15.2701 -15.1571 -15.1571 -15.1539 -15.1539 -15.0465 -15.0465
   -11.1598 -11.1598 -10.9907 -10.9907 -10.9530 -10.9530 -10.9271 -10.9271
   -10.9040 -10.9040 -10.8709 -10.8709 -10.7984 -10.7984 -10.6317 -10.6317
     2.5328   2.5328   3.6142   3.6142   5.0852   5.0852   5.2828   5.2828
     5.3793   5.3793   5.5158   5.5158   5.5655   5.5655   5.8175   5.8175
     5.8886   5.8886   8.3766   8.3766   9.0105   9.0105  10.4348  10.4348
    11.2746  11.2746  11.7535  11.7536  11.8759  11.8760  11.9364  11.9366

          k = 0.0000 0.2500-0.2500 (  6016 PWs)   bands (ev):

   -34.4399 -34.4399 -34.4212 -34.4212 -34.3198 -34.3198 -34.2984 -34.2984
   -15.2446 -15.2445 -15.2272 -15.2270 -15.1278 -15.1277 -15.0313 -15.0311
   -11.1349 -11.1346 -11.1135 -11.1133 -11.0312 -11.0309 -10.9116 -10.9110
   -10.8444 -10.8442 -10.7934 -10.7933 -10.7562 -10.7560 -10.6330 -10.6329
     2.1551   2.1554   4.1508   4.1519   4.9240   4.9252   5.0651   5.0697
     5.1302   5.1379   5.2090   5.2119   5.8559   5.8563   6.5378   6.5381
     6.5593   6.5601   6.7046   6.7049   9.0783   9.0783  10.8229  10.8235
    11.3411  11.3427  12.3264  12.3305  12.4422  12.4425  12.6633  12.6635

          k = 0.2500 0.0000-0.2500 (  6016 PWs)   bands (ev):

   -34.4421 -34.4421 -34.4181 -34.4181 -34.3225 -34.3225 -34.2966 -34.2966
   -15.2565 -15.2565 -15.2067 -15.2066 -15.1380 -15.1379 -15.0297 -15.0296
   -11.1539 -11.1535 -11.0801 -11.0800 -11.0448 -11.0447 -10.8765 -10.8762
   -10.8643 -10.8640 -10.8207 -10.8205 -10.7524 -10.7523 -10.6252 -10.6252
     2.1407   2.1411   4.3828   4.3844   4.8550   4.8557   4.9449   4.9462
     5.1313   5.1322   5.1484   5.1485   5.8516   5.8561   6.0324   6.0365
     6.7035   6.7040   7.2397   7.2402   8.9418   8.9419  10.8242  10.8248
    11.3464  11.3473  12.3285  12.3303  12.4968  12.4976  12.5389  12.5409

          k =-0.2500 0.0000-0.2500 (  6016 PWs)   bands (ev):

   -34.4421 -34.4421 -34.4181 -34.4181 -34.3225 -34.3225 -34.2966 -34.2966
   -15.2565 -15.2565 -15.2067 -15.2066 -15.1380 -15.1379 -15.0296 -15.0296
   -11.1541 -11.1537 -11.0804 -11.0802 -11.0449 -11.0448 -10.8765 -10.8763
   -10.8641 -10.8638 -10.8207 -10.8204 -10.7523 -10.7521 -10.6250 -10.6250
     2.1388   2.1391   4.3856   4.3871   4.8567   4.8577   4.9362   4.9373
     5.1294   5.1300   5.1459   5.1468   5.8538   5.8583   6.0396   6.0437
     6.7083   6.7089   7.2439   7.2444   8.9428   8.9429  10.8154  10.8159
    11.3439  11.3447  12.3275  12.3287  12.4928  12.4937  12.5393  12.5410

          k = 0.2500 0.0000 0.5000 (  6018 PWs)   bands (ev):

   -34.4297 -34.4297 -34.4296 -34.4296 -34.3192 -34.3192 -34.3007 -34.3007
   -15.2288 -15.2287 -15.2274 -15.2273 -15.0965 -15.0965 -15.0816 -15.0815
   -11.0961 -11.0958 -11.0924 -11.0921 -10.9781 -10.9780 -10.9771 -10.9771
   -10.8384 -10.8382 -10.8317 -10.8314 -10.7181 -10.7179 -10.7124 -10.7123
     3.1992   3.1997   3.2099   3.2104   4.9700   4.9709   4.9769   4.9780
     5.5149   5.5159   5.5194   5.5206   5.7940   5.7949   5.8074   5.8084
     6.7175   6.7181   6.7326   6.7332  10.0642  10.0645  10.0700  10.0703
    11.8576  11.8588  11.8626  11.8637  12.0016  12.0020  12.0052  12.0057

          k =-0.5000-0.2500 0.0000 (  6018 PWs)   bands (ev):

   -34.4394 -34.4394 -34.4180 -34.4180 -34.3249 -34.3249 -34.2969 -34.2969
   -15.2555 -15.2554 -15.1756 -15.1755 -15.1400 -15.1400 -15.0632 -15.0632
   -11.1454 -11.1450 -11.0324 -11.0323 -10.9615 -10.9612 -10.9574 -10.9573
   -10.8622 -10.8619 -10.8564 -10.8563 -10.7713 -10.7712 -10.6577 -10.6575
     2.8630   2.8631   3.8335   3.8339   4.6030   4.6054   5.0686   5.0715
     5.4784   5.4824   5.5468   5.5504   5.7649   5.7651   5.8361   5.8368
     5.8967   5.8988   7.9885   7.9888   9.3472   9.3472  10.3189  10.3190
    11.6852  11.6857  11.8924  11.8968  12.0492  12.0531  12.0547  12.0556

          k =-0.5000 0.0000 0.5000 (  6024 PWs)   bands (ev):

   -34.4287 -34.4287 -34.4287 -34.4287 -34.3201 -34.3201 -34.3016 -34.3016
   -15.2175 -15.2175 -15.2174 -15.2174 -15.1111 -15.1111 -15.0949 -15.0949
   -11.0791 -11.0791 -11.0748 -11.0748 -11.0178 -11.0178 -11.0142 -11.0142
   -10.8001 -10.8001 -10.7894 -10.7894 -10.7432 -10.7432 -10.7327 -10.7327
     3.6887   3.6887   3.6923   3.6923   4.3943   4.3943   4.4086   4.4086
     5.6222   5.6222   5.6340   5.6340   5.6948   5.6948   5.6971   5.6971
     6.9452   6.9452   6.9639   6.9639  10.0229  10.0229  10.0233  10.0233
    11.8332  11.8332  11.8352  11.8352  11.8956  11.8956  11.9020  11.9020

          k =-0.2500 0.2500-0.2500 (  6007 PWs)   bands (ev):

   -34.4381 -34.4381 -34.4211 -34.4211 -34.3212 -34.3212 -34.2987 -34.2987
   -15.2456 -15.2455 -15.2114 -15.2113 -15.1294 -15.1294 -15.0511 -15.0510
   -11.1450 -11.1446 -11.0951 -11.0949 -11.0427 -11.0425 -10.9067 -10.9065
   -10.8347 -10.8344 -10.7929 -10.7928 -10.7821 -10.7820 -10.6266 -10.6265
     2.4878   2.4882   4.3378   4.3402   4.6604   4.6614   4.6948   4.6959
     5.0507   5.0551   5.4038   5.4045   5.6727   5.6745   6.3465   6.3469
     6.6538   6.6542   7.4267   7.4272   9.3363   9.3364  11.0583  11.0587
    11.2554  11.2559  11.9656  11.9797  12.0068  12.0078  12.0902  12.1038

          k = 0.2500-0.2500-0.2500 (  6007 PWs)   bands (ev):

   -34.4381 -34.4381 -34.4211 -34.4211 -34.3212 -34.3212 -34.2987 -34.2987
   -15.2456 -15.2456 -15.2113 -15.2113 -15.1294 -15.1294 -15.0511 -15.0511
   -11.1448 -11.1445 -11.0948 -11.0948 -11.0427 -11.0426 -10.9066 -10.9066
   -10.8346 -10.8345 -10.7929 -10.7928 -10.7825 -10.7822 -10.6267 -10.6267
     2.4901   2.4906   4.3431   4.3436   4.6574   4.6578   4.6954   4.6955
     5.0505   5.0511   5.4089   5.4098   5.6733   5.6735   6.3375   6.3381
     6.6509   6.6510   7.4257   7.4262   9.3366   9.3366  11.0603  11.0603
    11.2573  11.2577  11.9772  11.9776  12.0056  12.0073  12.0974  12.0976

          k =-0.2500 0.2500 0.5000 (  6004 PWs)   bands (ev):

   -34.4292 -34.4292 -34.4291 -34.4291 -34.3196 -34.3196 -34.3011 -34.3011
   -15.2255 -15.2255 -15.2248 -15.2247 -15.1047 -15.1047 -15.0892 -15.0892
   -11.1213 -11.1212 -11.1187 -11.1183 -10.9990 -10.9988 -10.9985 -10.9982
   -10.8114 -10.8113 -10.8067 -10.8065 -10.6916 -10.6914 -10.6866 -10.6864
     3.3945   3.3949   3.4050   3.4058   4.5489   4.5500   4.5560   4.5571
     5.3727   5.3739   5.3843   5.3855   5.9296   5.9308   5.9355   5.9363
     7.3046   7.3051   7.3171   7.3176  10.2439  10.2446  10.2479  10.2481
    11.3159  11.3175  11.3182  11.3191  11.5841  11.5850  11.5864  11.5868

          k =-0.5000-0.2500 0.2500 (  6004 PWs)   bands (ev):

   -34.4362 -34.4362 -34.4211 -34.4211 -34.3227 -34.3227 -34.2990 -34.2990
   -15.2466 -15.2465 -15.1901 -15.1901 -15.1315 -15.1315 -15.0760 -15.0760
   -11.1545 -11.1541 -11.0533 -11.0532 -11.0393 -11.0390 -10.9854 -10.9853
   -10.8259 -10.8255 -10.7778 -10.7776 -10.7465 -10.7464 -10.6511 -10.6508
     3.1112   3.1113   3.8625   3.8630   4.5189   4.5251   4.5755   4.5765
     4.9652   4.9712   5.5670   5.5676   5.9132   5.9153   5.9711   5.9720
     6.7441   6.7446   8.2369   8.2374   9.7092   9.7092  10.4311  10.4312
    11.1981  11.2013  11.4591  11.4592  11.4684  11.4695  11.6520  11.6521

          k = 0.5000-0.2500-0.2500 (  6004 PWs)   bands (ev):

   -34.4362 -34.4362 -34.4211 -34.4211 -34.3227 -34.3227 -34.2990 -34.2990
   -15.2466 -15.2466 -15.1901 -15.1901 -15.1315 -15.1315 -15.0760 -15.0760
   -11.1543 -11.1543 -11.0533 -11.0533 -11.0392 -11.0391 -10.9854 -10.9853
   -10.8257 -10.8257 -10.7777 -10.7777 -10.7464 -10.7464 -10.6509 -10.6509
     3.1112   3.1113   3.8626   3.8626   4.5227   4.5228   4.5756   4.5757
     4.9681   4.9682   5.5671   5.5671   5.9138   5.9139   5.9717   5.9718
     6.7447   6.7447   8.2369   8.2369   9.7092   9.7092  10.4310  10.4311
    11.2000  11.2000  11.4594  11.4594  11.4690  11.4693  11.6521  11.6521

          k =-0.5000 0.2500 0.5000 (  6000 PWs)   bands (ev):

   -34.4286 -34.4286 -34.4286 -34.4286 -34.3201 -34.3201 -34.3015 -34.3015
   -15.2212 -15.2212 -15.2211 -15.2211 -15.1140 -15.1140 -15.0979 -15.0978
   -11.1281 -11.1279 -11.1250 -11.1249 -11.0448 -11.0446 -11.0430 -11.0427
   -10.7601 -10.7599 -10.7543 -10.7541 -10.6870 -10.6869 -10.6807 -10.6805
     3.7484   3.7489   3.7506   3.7510   4.0721   4.0726   4.0855   4.0860
     5.2300   5.2308   5.2384   5.2392   6.1054   6.1059   6.1073   6.1079
     7.8368   7.8371   7.8498   7.8501  10.3873  10.3876  10.3879  10.3882
    11.1214  11.1227  11.1234  11.1245  11.1932  11.1943  11.1958  11.1970

     the Fermi energy is    10.1818 ev

!    total energy              =   -2250.78385038 Ry
     Harris-Foulkes estimate   =   -2250.78385039 Ry
     estimated scf accuracy    <       0.00000003 Ry

     total all-electron energy =    -90255.127219 Ry

     The total energy is the sum of the following terms:

     one-electron contribution =     -39.83300695 Ry
     hartree contribution      =      41.93349638 Ry
     xc contribution           =    -258.65969676 Ry
     ewald contribution        =    -246.16711775 Ry
     one-center paw contrib.   =   -1748.05503930 Ry
     smearing contrib. (-TS)   =      -0.00248600 Ry

     convergence has been achieved in   4 iterations

     Forces acting on atoms (cartesian axes, Ry/au):

     atom    1 type  1   force =    -0.00048966    0.00067043    0.00067043
     atom    2 type  1   force =     0.00037310    0.00063298    0.00063298
     atom    3 type  1   force =     0.00006439    0.00012033    0.00018177
     atom    4 type  1   force =     0.00006439    0.00018177    0.00012033
     atom    5 type  2   force =    -0.01023071   -0.00298483   -0.00298483
     atom    6 type  2   force =    -0.01031905    0.00000628    0.00014751
     atom    7 type  2   force =    -0.01030634    0.00014977    0.00014977
     atom    8 type  2   force =    -0.01031905    0.00014751    0.00000628
     atom    9 type  2   force =     0.01028703    0.00012694   -0.00008705
     atom   10 type  2   force =     0.01027232    0.00038583    0.00038583
     atom   11 type  2   force =     0.01028703   -0.00008705    0.00012694
     atom   12 type  2   force =     0.01030318    0.00000117    0.00000117
     atom   13 type  2   force =    -0.00027623    0.00031219    0.00031219
     atom   14 type  2   force =     0.00028961    0.00033669    0.00033669

     Total force =     0.029465     Total SCF correction =     0.000199


     Computing stress (Cartesian axis) and pressure

     Message from routine stres:
     noncollinear stress + GGA not implemented

     number of scf cycles    =   2
     number of bfgs steps    =   1

     enthalpy old            =   -2250.7828406413 Ry
     enthalpy new            =   -2250.7838503791 Ry

     CASE: enthalpy_new < enthalpy_old


     WARNING: bfgs curvature condition failed, Theta= 0.884
     new trust radius        =       0.0134167307 bohr
     new conv_thr            =       0.0000001010 Ry

     new unit-cell volume =   1006.37882 a.u.^3 (   149.12995 Ang^3 )
     density =      7.11605 g/cm^3

CELL_PARAMETERS (angstrom)
   5.303000000   0.000000000   0.000000000
   0.000000000   5.303000000   0.000000000
   0.000000000   0.000000000   5.303000000

ATOMIC_POSITIONS (crystal)
Gd      -0.000112037   0.000165562   0.000165562
Gd       0.000082071   0.500151041   0.500151041
Gd       0.500016223   0.000028359   0.500042067
Gd       0.500016223   0.500042067   0.000028359
H        0.247636496   0.753211981   0.753211981
H        0.247612570   0.750096765   0.250034675
H        0.247615409   0.250032872   0.250032872
H        0.247612570   0.250034675   0.750096765
H        0.752479805   0.250027763   0.750076283
H        0.752476214   0.250087932   0.250087932
H        0.752479805   0.750076283   0.250027763
H        0.752483332   0.750095354   0.750095354
H        0.500037307   0.500171854   0.500171854
H        0.500164011   0.000077492   0.000077492



     Writing output data file 2301.save
     NEW-OLD atomic charge density approx. for the potential

     Check: negative/imaginary core charge=   -0.000002    0.000000

     total cpu time spent up to now is       66.0 secs

     per-process dynamical memory:   126.2 Mb

     Self-consistent Calculation

     iteration #  1     ecut=    50.00 Ry     beta=0.70
     Davidson diagonalization with overlap
     ethr =  1.00E-06,  avg # of iterations =  3.0

     total cpu time spent up to now is       70.8 secs

     total energy              =   -2250.78477946 Ry
     Harris-Foulkes estimate   =   -2250.78487832 Ry
     estimated scf accuracy    <       0.00014101 Ry

     iteration #  2     ecut=    50.00 Ry     beta=0.70
     Davidson diagonalization with overlap
     ethr =  2.61E-07,  avg # of iterations =  3.6

     total cpu time spent up to now is       75.5 secs

     total energy              =   -2250.78479883 Ry
     Harris-Foulkes estimate   =   -2250.78489575 Ry
     estimated scf accuracy    <       0.00020432 Ry

     iteration #  3     ecut=    50.00 Ry     beta=0.70
     Davidson diagonalization with overlap
     ethr =  2.61E-07,  avg # of iterations =  3.0

     total cpu time spent up to now is       79.8 secs

     total energy              =   -2250.78484183 Ry
     Harris-Foulkes estimate   =   -2250.78484222 Ry
     estimated scf accuracy    <       0.00000144 Ry

     iteration #  4     ecut=    50.00 Ry     beta=0.70
     Davidson diagonalization with overlap
     ethr =  2.67E-09,  avg # of iterations =  3.5

     total cpu time spent up to now is       84.2 secs

     End of self-consistent calculation

          k = 0.0000 0.0000 0.0000 (  6031 PWs)   bands (ev):

   -34.4628 -34.4628 -34.4268 -34.4268 -34.3092 -34.3092 -34.2807 -34.2807
   -15.2834 -15.2834 -15.2325 -15.2325 -15.1434 -15.1434 -14.9677 -14.9677
   -11.2147 -11.2147 -11.1532 -11.1532 -11.0977 -11.0977 -10.8638 -10.8638
   -10.8275 -10.8275 -10.8223 -10.8223 -10.6029 -10.6029 -10.5638 -10.5638
     1.2931   1.2931   4.4907   4.4907   4.6799   4.6799   4.6805   4.6805
     4.6833   4.6833   6.0124   6.0124   6.2432   6.2432   6.2445   6.2445
     6.2506   6.2506   7.9300   7.9300   8.3780   8.3780  10.7966  10.7966
    10.8010  10.8010  10.9585  10.9585  13.3560  13.3560  13.3601  13.3601

          k = 0.0000 0.0000 0.2500 (  6023 PWs)   bands (ev):

   -34.4568 -34.4568 -34.4313 -34.4313 -34.3072 -34.3072 -34.2841 -34.2841
   -15.2686 -15.2685 -15.2348 -15.2347 -15.1254 -15.1253 -14.9987 -14.9986
   -11.1680 -11.1678 -11.1264 -11.1263 -11.0566 -11.0564 -10.9085 -10.9082
   -10.8542 -10.8541 -10.7917 -10.7916 -10.6661 -10.6661 -10.6201 -10.6200
     1.7501   1.7502   4.1624   4.1627   4.8871   4.8871   4.8892   4.8898
     4.9763   4.9763   5.9870   5.9908   5.9916   5.9949   6.0912   6.0968
     6.3005   6.3009   7.2250   7.2253   8.6902   8.6904  11.0638  11.0640
    11.1962  11.1976  11.8689  11.8693  12.5007  12.5020  12.8138  12.8144

          k = 0.0000 0.0000-0.5000 (  5942 PWs)   bands (ev):

   -34.4434 -34.4434 -34.4432 -34.4432 -34.3044 -34.3044 -34.2884 -34.2884
   -15.2462 -15.2462 -15.2447 -15.2447 -15.0747 -15.0747 -15.0620 -15.0620
   -11.0947 -11.0947 -11.0904 -11.0904 -10.9909 -10.9909 -10.9907 -10.9907
   -10.8316 -10.8316 -10.8196 -10.8196 -10.7136 -10.7136 -10.7045 -10.7045
     2.9182   2.9182   2.9288   2.9288   5.3082   5.3082   5.3094   5.3094
     5.5408   5.5408   5.5422   5.5422   5.8439   5.8439   5.8581   5.8581
     6.4891   6.4891   6.4985   6.4985  10.1382  10.1382  10.1439  10.1439
    11.5290  11.5290  11.5293  11.5293  11.9110  11.9110  11.9114  11.9114

          k = 0.0000 0.2500 0.2500 (  6016 PWs)   bands (ev):

   -34.4523 -34.4523 -34.4342 -34.4342 -34.3063 -34.3063 -34.2865 -34.2865
   -15.2560 -15.2560 -15.2343 -15.2343 -15.1164 -15.1164 -15.0241 -15.0241
   -11.1426 -11.1425 -11.1159 -11.1159 -11.0303 -11.0303 -10.9190 -10.9189
   -10.8446 -10.8445 -10.7860 -10.7860 -10.7515 -10.7515 -10.6278 -10.6278
     2.1591   2.1591   4.1519   4.1520   4.9262   4.9262   5.0714   5.0715
     5.1336   5.1336   5.2152   5.2153   5.8571   5.8573   6.5233   6.5234
     6.5491   6.5494   6.7061   6.7062   9.0823   9.0824  10.8217  10.8218
    11.3423  11.3423  12.3256  12.3256  12.4441  12.4442  12.6536  12.6537

          k = 0.0000 0.2500-0.5000 (  6018 PWs)   bands (ev):

   -34.4425 -34.4425 -34.4424 -34.4424 -34.3052 -34.3052 -34.2891 -34.2891
   -15.2388 -15.2388 -15.2380 -15.2379 -15.0854 -15.0853 -15.0721 -15.0721
   -11.1091 -11.1089 -11.1071 -11.1070 -10.9605 -10.9603 -10.9572 -10.9571
   -10.8559 -10.8558 -10.8497 -10.8496 -10.7043 -10.7042 -10.7005 -10.7004
     3.2059   3.2061   3.2161   3.2164   4.9606   4.9618   4.9624   4.9637
     5.5160   5.5169   5.5181   5.5192   5.7939   5.7944   5.8052   5.8058
     6.7396   6.7399   6.7492   6.7496  10.0377  10.0381  10.0404  10.0409
    11.7726  11.7731  11.7733  11.7738  12.0588  12.0603  12.0650  12.0662

          k = 0.0000-0.5000-0.5000 (  6024 PWs)   bands (ev):

   -34.4417 -34.4417 -34.4417 -34.4417 -34.3060 -34.3060 -34.2898 -34.2898
   -15.2302 -15.2302 -15.2302 -15.2302 -15.0973 -15.0973 -15.0831 -15.0831
   -11.1089 -11.1089 -11.1086 -11.1086 -10.9690 -10.9690 -10.9656 -10.9656
   -10.8436 -10.8436 -10.8429 -10.8429 -10.7078 -10.7078 -10.7051 -10.7051
     3.7104   3.7104   3.7217   3.7217   4.3626   4.3626   4.3637   4.3637
     5.6445   5.6445   5.6556   5.6556   5.6710   5.6710   5.6736   5.6736
     7.0014   7.0014   7.0117   7.0117   9.9395   9.9395   9.9395   9.9395
    11.5989  11.5989  11.5992  11.5992  12.1484  12.1485  12.1527  12.1528

          k = 0.2500 0.2500 0.2500 (  6007 PWs)   bands (ev):

   -34.4508 -34.4508 -34.4342 -34.4342 -34.3075 -34.3075 -34.2867 -34.2867
   -15.2570 -15.2570 -15.2200 -15.2200 -15.1180 -15.1180 -15.0426 -15.0426
   -11.1523 -11.1521 -11.0981 -11.0980 -11.0423 -11.0422 -10.9145 -10.9145
   -10.8342 -10.8341 -10.7868 -10.7868 -10.7761 -10.7761 -10.6211 -10.6211
     2.4905   2.4909   4.3354   4.3359   4.6611   4.6613   4.6992   4.6993
     5.0572   5.0576   5.4018   5.4026   5.6729   5.6731   6.3489   6.3493
     6.6512   6.6514   7.4194   7.4199   9.3392   9.3392  11.0563  11.0563
    11.2531  11.2534  11.9763  11.9771  12.0059  12.0067  12.0987  12.0987

          k = 0.2500 0.2500-0.5000 (  6004 PWs)   bands (ev):

   -34.4421 -34.4421 -34.4420 -34.4420 -34.3055 -34.3055 -34.2894 -34.2894
   -15.2360 -15.2359 -15.2355 -15.2355 -15.0933 -15.0932 -15.0796 -15.0796
   -11.1267 -11.1265 -11.1245 -11.1244 -10.9999 -10.9998 -10.9997 -10.9996
   -10.8104 -10.8103 -10.8062 -10.8061 -10.6852 -10.6851 -10.6810 -10.6808
     3.3946   3.3953   3.4041   3.4045   4.5538   4.5546   4.5598   4.5607
     5.3771   5.3783   5.3869   5.3880   5.9288   5.9294   5.9340   5.9351
     7.2966   7.2969   7.3082   7.3086  10.2472  10.2473  10.2504  10.2509
    11.3155  11.3161  11.3172  11.3181  11.5850  11.5853  11.5867  11.5873

          k = 0.2500-0.5000-0.5000 (  6000 PWs)   bands (ev):

   -34.4416 -34.4416 -34.4416 -34.4416 -34.3059 -34.3059 -34.2897 -34.2897
   -15.2333 -15.2333 -15.2333 -15.2333 -15.1009 -15.1009 -15.0868 -15.0868
   -11.1414 -11.1413 -11.1401 -11.1399 -11.0307 -11.0307 -11.0305 -11.0304
   -10.7726 -10.7726 -10.7701 -10.7701 -10.6704 -10.6704 -10.6669 -10.6668
     3.7798   3.7803   3.7914   3.7918   4.0341   4.0342   4.0347   4.0350
     5.2485   5.2494   5.2587   5.2595   6.0914   6.0915   6.0925   6.0927
     7.8712   7.8718   7.8841   7.8847  10.3016  10.3016  10.3021  10.3021
    10.9615  10.9632  10.9632  10.9646  11.3447  11.3447  11.3454  11.3455

          k =-0.5000-0.5000-0.5000 (  6008 PWs)   bands (ev):

   -34.4416 -34.4416 -34.4416 -34.4416 -34.3058 -34.3058 -34.2897 -34.2897
   -15.2363 -15.2363 -15.2363 -15.2363 -15.1046 -15.1046 -15.0905 -15.0905
   -11.1691 -11.1691 -11.1671 -11.1671 -11.0697 -11.0697 -11.0687 -11.0687
   -10.7261 -10.7261 -10.7225 -10.7225 -10.6372 -10.6372 -10.6330 -10.6330
     3.8029   3.8029   3.8037   3.8037   3.8397   3.8397   3.8511   3.8511
     5.0310   5.0310   5.0394   5.0394   6.4165   6.4165   6.4180   6.4180
     8.9832   8.9832   8.9942   8.9942  10.5866  10.5866  10.5870  10.5871
    10.7704  10.7705  10.7713  10.7713  10.8364  10.8365  10.8383  10.8386

          k = 0.2500 0.0000 0.0000 (  6023 PWs)   bands (ev):

   -34.4599 -34.4599 -34.4268 -34.4268 -34.3119 -34.3119 -34.2809 -34.2809
   -15.2824 -15.2824 -15.2060 -15.2060 -15.1428 -15.1428 -14.9962 -14.9961
   -11.1947 -11.1946 -11.0847 -11.0846 -11.0631 -11.0629 -10.8718 -10.8715
   -10.8550 -10.8549 -10.8399 -10.8399 -10.6935 -10.6933 -10.5890 -10.5890
     1.7347   1.7350   4.7415   4.7420   4.7703   4.7703   4.8844   4.8844
     4.8967   4.8977   4.9792   4.9793   6.0030   6.0031   6.0054   6.0067
     7.2268   7.2271   7.3676   7.3680   8.3577   8.3577  11.0611  11.0613
    11.1925  11.1945  11.9994  11.9995  12.5022  12.5040  12.5472  12.5472

          k =-0.5000 0.0000 0.0000 (  5942 PWs)   bands (ev):

   -34.4569 -34.4569 -34.4267 -34.4267 -34.3148 -34.3148 -34.2810 -34.2810
   -15.2814 -15.2814 -15.1688 -15.1688 -15.1425 -15.1425 -15.0350 -15.0350
   -11.1697 -11.1697 -10.9809 -10.9809 -10.9631 -10.9631 -10.9372 -10.9372
   -10.8936 -10.8936 -10.8612 -10.8612 -10.8101 -10.8101 -10.6201 -10.6201
     2.5466   2.5466   3.6002   3.6002   5.0838   5.0838   5.2842   5.2842
     5.3801   5.3801   5.5148   5.5148   5.5686   5.5686   5.8391   5.8391
     5.8680   5.8680   8.3599   8.3599   9.0121   9.0121  10.4480  10.4480
    11.2793  11.2793  11.7490  11.7490  11.8782  11.8783  11.9344  11.9346

          k = 0.0000 0.2500-0.2500 (  6016 PWs)   bands (ev):

   -34.4523 -34.4523 -34.4342 -34.4342 -34.3063 -34.3063 -34.2865 -34.2865
   -15.2560 -15.2560 -15.2343 -15.2342 -15.1164 -15.1164 -15.0242 -15.0241
   -11.1427 -11.1424 -11.1159 -11.1158 -11.0304 -11.0302 -10.9192 -10.9188
   -10.8446 -10.8445 -10.7861 -10.7860 -10.7515 -10.7514 -10.6279 -10.6278
     2.1590   2.1593   4.1514   4.1522   4.9257   4.9267   5.0690   5.0737
     5.1299   5.1375   5.2141   5.2168   5.8571   5.8575   6.5239   6.5241
     6.5487   6.5493   6.7054   6.7056   9.0823   9.0823  10.8215  10.8220
    11.3414  11.3427  12.3237  12.3272  12.4441  12.4444  12.6538  12.6538

          k = 0.2500 0.0000-0.2500 (  6016 PWs)   bands (ev):

   -34.4546 -34.4546 -34.4312 -34.4312 -34.3091 -34.3091 -34.2844 -34.2844
   -15.2677 -15.2677 -15.2144 -15.2143 -15.1268 -15.1268 -15.0220 -15.0219
   -11.1610 -11.1607 -11.0820 -11.0819 -11.0462 -11.0460 -10.8867 -10.8865
   -10.8589 -10.8587 -10.8177 -10.8175 -10.7463 -10.7462 -10.6194 -10.6193
     2.1459   2.1462   4.3856   4.3869   4.8506   4.8512   4.9449   4.9461
     5.1323   5.1330   5.1489   5.1490   5.8527   5.8565   6.0302   6.0337
     6.7042   6.7046   7.2301   7.2305   8.9436   8.9438  10.8268  10.8274
    11.3454  11.3462  12.3276  12.3287  12.4984  12.4991  12.5443  12.5454

          k =-0.2500 0.0000-0.2500 (  6016 PWs)   bands (ev):

   -34.4546 -34.4546 -34.4312 -34.4312 -34.3091 -34.3091 -34.2844 -34.2844
   -15.2677 -15.2677 -15.2145 -15.2144 -15.1268 -15.1268 -15.0219 -15.0219
   -11.1611 -11.1609 -11.0823 -11.0821 -11.0462 -11.0460 -10.8867 -10.8865
   -10.8587 -10.8586 -10.8177 -10.8174 -10.7462 -10.7461 -10.6192 -10.6192
     2.1442   2.1445   4.3880   4.3893   4.8521   4.8529   4.9372   4.9382
     5.1305   5.1311   5.1467   5.1475   5.8547   5.8585   6.0365   6.0400
     6.7085   6.7089   7.2338   7.2342   8.9445   8.9446  10.8191  10.8196
    11.3432  11.3438  12.3266  12.3273  12.4949  12.4956  12.5444  12.5456

          k = 0.2500 0.0000 0.5000 (  6018 PWs)   bands (ev):

   -34.4426 -34.4426 -34.4425 -34.4425 -34.3051 -34.3051 -34.2891 -34.2891
   -15.2383 -15.2383 -15.2374 -15.2374 -15.0860 -15.0859 -15.0727 -15.0727
   -11.0990 -11.0988 -11.0960 -11.0958 -10.9868 -10.9867 -10.9861 -10.9860
   -10.8295 -10.8293 -10.8235 -10.8233 -10.7143 -10.7142 -10.7092 -10.7090
     3.2043   3.2048   3.2137   3.2142   4.9693   4.9700   4.9753   4.9762
     5.5171   5.5180   5.5209   5.5219   5.7949   5.7957   5.8068   5.8076
     6.7099   6.7105   6.7231   6.7237  10.0689  10.0692  10.0740  10.0743
    11.8552  11.8562  11.8596  11.8606  12.0016  12.0018  12.0047  12.0051

          k =-0.5000-0.2500 0.0000 (  6018 PWs)   bands (ev):

   -34.4524 -34.4524 -34.4311 -34.4311 -34.3111 -34.3111 -34.2846 -34.2846
   -15.2669 -15.2668 -15.1873 -15.1872 -15.1285 -15.1285 -15.0518 -15.0518
   -11.1531 -11.1529 -11.0335 -11.0333 -10.9677 -10.9676 -10.9593 -10.9592
   -10.8558 -10.8557 -10.8541 -10.8540 -10.7726 -10.7725 -10.6483 -10.6482
     2.8756   2.8758   3.8215   3.8219   4.6069   4.6091   5.0677   5.0703
     5.4811   5.4847   5.5469   5.5501   5.7827   5.7829   5.8199   5.8205
     5.8931   5.8949   7.9754   7.9756   9.3490   9.3490  10.3267  10.3268
    11.6880  11.6883  11.8892  11.8930  12.0503  12.0517  12.0522  12.0550

          k =-0.5000 0.0000 0.5000 (  6024 PWs)   bands (ev):

   -34.4417 -34.4417 -34.4417 -34.4417 -34.3059 -34.3059 -34.2897 -34.2897
   -15.2290 -15.2290 -15.2289 -15.2289 -15.0986 -15.0986 -15.0845 -15.0845
   -11.0830 -11.0830 -11.0796 -11.0796 -11.0221 -11.0221 -11.0192 -11.0192
   -10.7959 -10.7959 -10.7862 -10.7862 -10.7375 -10.7375 -10.7281 -10.7281
     3.6982   3.6982   3.7013   3.7013   4.3884   4.3884   4.4009   4.4009
     5.6324   5.6324   5.6427   5.6427   5.6873   5.6873   5.6893   5.6893
     6.9394   6.9394   6.9558   6.9558  10.0253  10.0253  10.0256  10.0256
    11.8279  11.8279  11.8297  11.8297  11.8987  11.8987  11.9042  11.9042

          k =-0.2500 0.2500-0.2500 (  6007 PWs)   bands (ev):

   -34.4508 -34.4508 -34.4342 -34.4342 -34.3075 -34.3075 -34.2867 -34.2867
   -15.2570 -15.2570 -15.2200 -15.2199 -15.1180 -15.1180 -15.0427 -15.0426
   -11.1522 -11.1519 -11.0979 -11.0977 -11.0423 -11.0422 -10.9146 -10.9144
   -10.8343 -10.8342 -10.7872 -10.7870 -10.7762 -10.7760 -10.6212 -10.6212
     2.4926   2.4930   4.3378   4.3398   4.6583   4.6592   4.6991   4.7002
     5.0533   5.0575   5.4062   5.4068   5.6726   5.6743   6.3420   6.3424
     6.6468   6.6472   7.4188   7.4193   9.3394   9.3394  11.0576  11.0578
    11.2545  11.2549  11.9730  11.9860  12.0063  12.0074  12.0928  12.1058

          k = 0.2500-0.2500-0.2500 (  6007 PWs)   bands (ev):

   -34.4508 -34.4508 -34.4342 -34.4342 -34.3075 -34.3075 -34.2867 -34.2867
   -15.2570 -15.2570 -15.2199 -15.2199 -15.1180 -15.1180 -15.0427 -15.0426
   -11.1519 -11.1518 -11.0977 -11.0976 -11.0424 -11.0422 -10.9146 -10.9144
   -10.8344 -10.8342 -10.7872 -10.7871 -10.7765 -10.7764 -10.6213 -10.6213
     2.4947   2.4951   4.3424   4.3428   4.6557   4.6560   4.6997   4.6999
     5.0533   5.0537   5.4107   5.4114   5.6732   5.6734   6.3341   6.3347
     6.6442   6.6442   7.4180   7.4184   9.3397   9.3397  11.0593  11.0593
    11.2561  11.2565  11.9834  11.9837  12.0053  12.0068  12.1000  12.1000

          k =-0.2500 0.2500 0.5000 (  6004 PWs)   bands (ev):

   -34.4421 -34.4421 -34.4420 -34.4420 -34.3055 -34.3055 -34.2894 -34.2894
   -15.2359 -15.2359 -15.2355 -15.2354 -15.0933 -15.0933 -15.0797 -15.0796
   -11.1265 -11.1264 -11.1244 -11.1242 -10.9999 -10.9998 -10.9998 -10.9996
   -10.8105 -10.8104 -10.8063 -10.8062 -10.6854 -10.6852 -10.6810 -10.6809
     3.3982   3.3986   3.4075   3.4081   4.5507   4.5516   4.5568   4.5578
     5.3788   5.3800   5.3889   5.3901   5.9246   5.9257   5.9299   5.9305
     7.2968   7.2972   7.3078   7.3082  10.2470  10.2476  10.2505  10.2507
    11.3155  11.3168  11.3175  11.3183  11.5825  11.5831  11.5845  11.5849

          k =-0.5000-0.2500 0.2500 (  6004 PWs)   bands (ev):

   -34.4492 -34.4492 -34.4342 -34.4342 -34.3088 -34.3088 -34.2868 -34.2868
   -15.2580 -15.2580 -15.2017 -15.2017 -15.1199 -15.1199 -15.0648 -15.0648
   -11.1612 -11.1610 -11.0532 -11.0531 -11.0446 -11.0445 -10.9865 -10.9864
   -10.8252 -10.8250 -10.7721 -10.7718 -10.7483 -10.7482 -10.6427 -10.6426
     3.1232   3.1233   3.8519   3.8523   4.5247   4.5304   4.5724   4.5732
     4.9691   4.9746   5.5800   5.5804   5.9115   5.9134   5.9573   5.9580
     6.7404   6.7408   8.2273   8.2277   9.7113   9.7114  10.4363  10.4363
    11.1979  11.2007  11.4593  11.4594  11.4672  11.4680  11.6518  11.6519

          k = 0.5000-0.2500-0.2500 (  6004 PWs)   bands (ev):

   -34.4492 -34.4492 -34.4342 -34.4342 -34.3088 -34.3088 -34.2868 -34.2868
   -15.2580 -15.2580 -15.2017 -15.2017 -15.1199 -15.1199 -15.0648 -15.0648
   -11.1611 -11.1610 -11.0532 -11.0532 -11.0446 -11.0445 -10.9865 -10.9864
   -10.8251 -10.8250 -10.7719 -10.7719 -10.7483 -10.7483 -10.6426 -10.6426
     3.1232   3.1233   3.8519   3.8519   4.5282   4.5282   4.5724   4.5726
     4.9717   4.9718   5.5800   5.5800   5.9121   5.9121   5.9578   5.9578
     6.7409   6.7410   8.2273   8.2273   9.7113   9.7113  10.4362  10.4362
    11.1996  11.1996  11.4595  11.4595  11.4676  11.4678  11.6519  11.6519

          k =-0.5000 0.2500 0.5000 (  6000 PWs)   bands (ev):

   -34.4416 -34.4416 -34.4416 -34.4416 -34.3059 -34.3059 -34.2897 -34.2897
   -15.2327 -15.2327 -15.2326 -15.2326 -15.1016 -15.1016 -15.0875 -15.0875
   -11.1334 -11.1333 -11.1311 -11.1310 -11.0443 -11.0442 -11.0430 -11.0429
   -10.7610 -10.7609 -10.7561 -10.7560 -10.6796 -10.6795 -10.6743 -10.6742
     3.7580   3.7584   3.7599   3.7603   4.0657   4.0662   4.0774   4.0779
     5.2377   5.2385   5.2450   5.2458   6.0980   6.0985   6.0997   6.1002
     7.8323   7.8326   7.8436   7.8439  10.3891  10.3894  10.3896  10.3899
    11.1191  11.1202  11.1210  11.1219  11.1934  11.1944  11.1957  11.1968

     the Fermi energy is    10.1853 ev

!    total energy              =   -2250.78484234 Ry
     Harris-Foulkes estimate   =   -2250.78484236 Ry
     estimated scf accuracy    <       0.00000004 Ry

     total all-electron energy =    -90255.128211 Ry

     The total energy is the sum of the following terms:

     one-electron contribution =     -39.81673718 Ry
     hartree contribution      =      41.92516803 Ry
     xc contribution           =    -258.66016818 Ry
     ewald contribution        =    -246.17555717 Ry
     one-center paw contrib.   =   -1748.05505127 Ry
     smearing contrib. (-TS)   =      -0.00249656 Ry

     convergence has been achieved in   4 iterations

     Forces acting on atoms (cartesian axes, Ry/au):

     atom    1 type  1   force =    -0.00040324    0.00049365    0.00049365
     atom    2 type  1   force =     0.00034443    0.00049875    0.00049875
     atom    3 type  1   force =     0.00003846    0.00011579    0.00016888
     atom    4 type  1   force =     0.00003846    0.00016888    0.00011579
     atom    5 type  2   force =    -0.00906928   -0.00265612   -0.00265612
     atom    6 type  2   force =    -0.00912214    0.00003847    0.00013011
     atom    7 type  2   force =    -0.00910946    0.00015474    0.00015474
     atom    8 type  2   force =    -0.00912214    0.00013011    0.00003847
     atom    9 type  2   force =     0.00909457    0.00013387   -0.00005722
     atom   10 type  2   force =     0.00908204    0.00036215    0.00036215
     atom   11 type  2   force =     0.00909457   -0.00005722    0.00013387
     atom   12 type  2   force =     0.00910986    0.00003515    0.00003515
     atom   13 type  2   force =    -0.00025616    0.00028058    0.00028058
     atom   14 type  2   force =     0.00028004    0.00030121    0.00030121

     Total force =     0.026056     Total SCF correction =     0.000210


     Computing stress (Cartesian axis) and pressure

     Message from routine stres:
     noncollinear stress + GGA not implemented

     number of scf cycles    =   3
     number of bfgs steps    =   2

     enthalpy old            =   -2250.7838503791 Ry
     enthalpy new            =   -2250.7848423352 Ry

     CASE: enthalpy_new < enthalpy_old

     new trust radius        =       0.0201250961 bohr
     new conv_thr            =       0.0000000912 Ry

     new unit-cell volume =   1006.37882 a.u.^3 (   149.12995 Ang^3 )
     density =      7.11605 g/cm^3

CELL_PARAMETERS (angstrom)
   5.303000000   0.000000000   0.000000000
   0.000000000   5.303000000   0.000000000
   0.000000000   0.000000000   5.303000000

ATOMIC_POSITIONS (crystal)
Gd      -0.000195365   0.000273038   0.000273038
Gd       0.000150956   0.500256618   0.500256618
Gd       0.500025120   0.000051874   0.500076366
Gd       0.500025120   0.500076366   0.000051874
H        0.245780707   0.752669251   0.752669251
H        0.245744113   0.750102205   0.250061481
H        0.245749470   0.250063285   0.250063285
H        0.245744113   0.250061481   0.750102205
H        0.754342531   0.250053973   0.750062896
H        0.754336308   0.250160994   0.250160994
H        0.754342531   0.750062896   0.250053973
H        0.754349097   0.750100010   0.750100010
H        0.499985595   0.500229058   0.500229058
H        0.500219705   0.000138950   0.000138950



     Writing output data file 2301.save
     NEW-OLD atomic charge density approx. for the potential

     Check: negative/imaginary core charge=   -0.000002    0.000000

     total cpu time spent up to now is       87.8 secs

     per-process dynamical memory:   126.2 Mb

     Self-consistent Calculation

     iteration #  1     ecut=    50.00 Ry     beta=0.70
     Davidson diagonalization with overlap
     ethr =  1.00E-06,  avg # of iterations =  3.2

     total cpu time spent up to now is       93.0 secs

     total energy              =   -2250.78595425 Ry
     Harris-Foulkes estimate   =   -2250.78618049 Ry
     estimated scf accuracy    <       0.00032258 Ry

     iteration #  2     ecut=    50.00 Ry     beta=0.70
     Davidson diagonalization with overlap
     ethr =  5.97E-07,  avg # of iterations =  3.8

     total cpu time spent up to now is       98.0 secs

     total energy              =   -2250.78599692 Ry
     Harris-Foulkes estimate   =   -2250.78622435 Ry
     estimated scf accuracy    <       0.00048253 Ry

     iteration #  3     ecut=    50.00 Ry     beta=0.70
     Davidson diagonalization with overlap
     ethr =  5.97E-07,  avg # of iterations =  3.2

     total cpu time spent up to now is      102.4 secs

     total energy              =   -2250.78609730 Ry
     Harris-Foulkes estimate   =   -2250.78609804 Ry
     estimated scf accuracy    <       0.00000299 Ry

     iteration #  4     ecut=    50.00 Ry     beta=0.70
     Davidson diagonalization with overlap
     ethr =  5.53E-09,  avg # of iterations =  3.4

     total cpu time spent up to now is      106.9 secs

     total energy              =   -2250.78609838 Ry
     Harris-Foulkes estimate   =   -2250.78609843 Ry
     estimated scf accuracy    <       0.00000010 Ry

     iteration #  5     ecut=    50.00 Ry     beta=0.70
     Davidson diagonalization with overlap
     ethr =  1.91E-10,  avg # of iterations =  3.6

     total cpu time spent up to now is      111.9 secs

     End of self-consistent calculation

          k = 0.0000 0.0000 0.0000 (  6031 PWs)   bands (ev):

   -34.4817 -34.4817 -34.4471 -34.4471 -34.2898 -34.2898 -34.2613 -34.2613
   -15.3010 -15.3010 -15.2427 -15.2427 -15.1261 -15.1261 -14.9578 -14.9578
   -11.2260 -11.2260 -11.1560 -11.1560 -11.0981 -11.0981 -10.8758 -10.8758
   -10.8279 -10.8279 -10.8110 -10.8110 -10.6004 -10.6004 -10.5521 -10.5521
     1.2996   1.2996   4.4899   4.4899   4.6818   4.6818   4.6821   4.6821
     4.6836   4.6836   5.9905   5.9905   6.2465   6.2465   6.2487   6.2487
     6.2504   6.2504   7.9302   7.9302   8.3806   8.3806  10.7966  10.7966
    10.7985  10.7985  10.9572  10.9572  13.3537  13.3537  13.3600  13.3600

          k = 0.0000 0.0000 0.2500 (  6023 PWs)   bands (ev):

   -34.4761 -34.4761 -34.4516 -34.4516 -34.2873 -34.2873 -34.2649 -34.2649
   -15.2859 -15.2859 -15.2461 -15.2461 -15.1083 -15.1083 -14.9876 -14.9876
   -11.1790 -11.1788 -11.1296 -11.1296 -11.0606 -11.0604 -10.9216 -10.9214
   -10.8454 -10.8453 -10.7861 -10.7861 -10.6595 -10.6595 -10.6110 -10.6109
     1.7564   1.7565   4.1654   4.1655   4.8890   4.8890   4.8900   4.8904
     4.9781   4.9782   5.9874   5.9909   5.9933   5.9950   6.0895   6.0937
     6.2798   6.2802   7.2271   7.2272   8.6928   8.6929  11.0618  11.0620
    11.1942  11.1952  11.8799  11.8804  12.5012  12.5021  12.8065  12.8069

          k = 0.0000 0.0000-0.5000 (  5942 PWs)   bands (ev):

   -34.4633 -34.4633 -34.4632 -34.4632 -34.2836 -34.2836 -34.2697 -34.2697
   -15.2606 -15.2606 -15.2597 -15.2597 -15.0597 -15.0597 -15.0483 -15.0483
   -11.0999 -11.0999 -11.0965 -11.0965 -11.0063 -11.0063 -11.0061 -11.0061
   -10.8160 -10.8160 -10.8055 -10.8055 -10.7075 -10.7075 -10.6993 -10.6993
     2.9250   2.9250   2.9331   2.9331   5.3100   5.3100   5.3108   5.3108
     5.5427   5.5427   5.5440   5.5440   5.8473   5.8473   5.8584   5.8584
     6.4741   6.4741   6.4817   6.4817  10.1480  10.1480  10.1525  10.1525
    11.5234  11.5234  11.5237  11.5237  11.9087  11.9087  11.9091  11.9091

          k = 0.0000 0.2500 0.2500 (  6016 PWs)   bands (ev):

   -34.4719 -34.4719 -34.4545 -34.4545 -34.2860 -34.2860 -34.2674 -34.2674
   -15.2738 -15.2738 -15.2469 -15.2469 -15.0989 -15.0989 -15.0119 -15.0118
   -11.1553 -11.1552 -11.1208 -11.1208 -11.0313 -11.0312 -10.9315 -10.9314
   -10.8437 -10.8436 -10.7739 -10.7739 -10.7439 -10.7439 -10.6186 -10.6186
     2.1650   2.1650   4.1527   4.1528   4.9281   4.9281   5.0773   5.0775
     5.1336   5.1336   5.2232   5.2233   5.8593   5.8595   6.5027   6.5027
     6.5331   6.5332   6.7078   6.7078   9.0881   9.0882  10.8189  10.8190
    11.3424  11.3425  12.3208  12.3208  12.4464  12.4465  12.6387  12.6388

          k = 0.0000 0.2500-0.5000 (  6018 PWs)   bands (ev):

   -34.4626 -34.4626 -34.4625 -34.4625 -34.2842 -34.2842 -34.2703 -34.2703
   -15.2547 -15.2547 -15.2542 -15.2542 -15.0689 -15.0689 -15.0571 -15.0571
   -11.1195 -11.1194 -11.1181 -11.1180 -10.9648 -10.9646 -10.9621 -10.9619
   -10.8518 -10.8515 -10.8468 -10.8465 -10.6929 -10.6929 -10.6897 -10.6896
     3.2112   3.2113   3.2190   3.2192   4.9672   4.9681   4.9688   4.9697
     5.5190   5.5195   5.5208   5.5214   5.7969   5.7974   5.8058   5.8063
     6.7195   6.7198   6.7272   6.7275  10.0420  10.0424  10.0441  10.0445
    11.7730  11.7735  11.7738  11.7741  12.0558  12.0574  12.0614  12.0623

          k = 0.0000-0.5000-0.5000 (  6024 PWs)   bands (ev):

   -34.4619 -34.4619 -34.4619 -34.4619 -34.2848 -34.2848 -34.2709 -34.2709
   -15.2481 -15.2481 -15.2481 -15.2481 -15.0787 -15.0787 -15.0665 -15.0665
   -11.1244 -11.1244 -11.1241 -11.1241 -10.9539 -10.9539 -10.9508 -10.9508
   -10.8605 -10.8605 -10.8599 -10.8599 -10.6908 -10.6908 -10.6884 -10.6884
     3.7077   3.7077   3.7162   3.7162   4.3797   4.3797   4.3806   4.3806
     5.6550   5.6550   5.6630   5.6630   5.6635   5.6635   5.6718   5.6718
     6.9771   6.9771   6.9854   6.9854   9.9396   9.9396   9.9397   9.9397
    11.5927  11.5927  11.5929  11.5929  12.1555  12.1555  12.1594  12.1595

          k = 0.2500 0.2500 0.2500 (  6007 PWs)   bands (ev):

   -34.4707 -34.4707 -34.4545 -34.4545 -34.2870 -34.2870 -34.2675 -34.2675
   -15.2747 -15.2747 -15.2346 -15.2346 -15.1005 -15.1005 -15.0284 -15.0284
   -11.1641 -11.1640 -11.1036 -11.1035 -11.0436 -11.0434 -10.9274 -10.9273
   -10.8329 -10.8327 -10.7780 -10.7779 -10.7656 -10.7656 -10.6118 -10.6117
     2.4982   2.4985   4.3358   4.3362   4.6574   4.6575   4.7062   4.7062
     5.0610   5.0612   5.4061   5.4066   5.6731   5.6732   6.3416   6.3419
     6.6400   6.6403   7.4078   7.4083   9.3437   9.3438  11.0551  11.0551
    11.2517  11.2519  11.9867  11.9873  12.0052  12.0057  12.1025  12.1026

          k = 0.2500 0.2500-0.5000 (  6004 PWs)   bands (ev):

   -34.4622 -34.4622 -34.4622 -34.4622 -34.2845 -34.2845 -34.2705 -34.2705
   -15.2527 -15.2527 -15.2525 -15.2524 -15.0759 -15.0759 -15.0639 -15.0639
   -11.1359 -11.1358 -11.1343 -11.1342 -11.0029 -11.0028 -11.0027 -11.0026
   -10.8084 -10.8083 -10.8046 -10.8045 -10.6748 -10.6747 -10.6711 -10.6710
     3.4010   3.4015   3.4083   3.4086   4.5559   4.5565   4.5605   4.5612
     5.3869   5.3879   5.3945   5.3955   5.9210   5.9214   5.9251   5.9260
     7.2851   7.2854   7.2946   7.2949  10.2514  10.2516  10.2541  10.2545
    11.3144  11.3148  11.3158  11.3164  11.5819  11.5822  11.5832  11.5835

          k = 0.2500-0.5000-0.5000 (  6000 PWs)   bands (ev):

   -34.4619 -34.4619 -34.4619 -34.4619 -34.2848 -34.2848 -34.2708 -34.2708
   -15.2511 -15.2511 -15.2511 -15.2511 -15.0825 -15.0824 -15.0702 -15.0702
   -11.1535 -11.1535 -11.1525 -11.1525 -11.0264 -11.0264 -11.0261 -11.0261
   -10.7791 -10.7791 -10.7770 -10.7770 -10.6561 -10.6561 -10.6532 -10.6531
     3.7743   3.7746   3.7832   3.7834   4.0489   4.0491   4.0494   4.0497
     5.2578   5.2585   5.2656   5.2664   6.0832   6.0832   6.0841   6.0841
     7.8565   7.8570   7.8671   7.8676  10.3008  10.3008  10.3012  10.3012
    10.9593  10.9606  10.9607  10.9618  11.3465  11.3467  11.3474  11.3476

          k =-0.5000-0.5000-0.5000 (  6008 PWs)   bands (ev):

[...]
     6.2778   6.2778   7.9309   7.9309   8.3992   8.3992  10.7815  10.7815
    10.7991  10.7991  10.9511  10.9511  13.3424  13.3424  13.3565  13.3565

          k = 0.0000 0.0000 0.2500 (  6023 PWs)   bands (ev):

   -34.5529 -34.5529 -34.5303 -34.5303 -34.2064 -34.2064 -34.1867 -34.1867
   -15.3544 -15.3544 -15.3009 -15.3009 -15.0394 -15.0394 -14.9324 -14.9324
   -11.2278 -11.2277 -11.1503 -11.1502 -11.0901 -11.0900 -10.9793 -10.9792
   -10.8042 -10.8041 -10.7502 -10.7502 -10.6308 -10.6307 -10.5609 -10.5608
     1.7810   1.7811   4.1758   4.1761   4.8865   4.8868   4.9034   4.9035
     4.9921   4.9921   5.9811   5.9837   6.0056   6.0057   6.0839   6.0867
     6.1958   6.1959   7.2423   7.2424   8.7022   8.7023  11.0489  11.0492
    11.1835  11.1840  11.9186  11.9191  12.5043  12.5048  12.7716  12.7718

          k = 0.0000 0.0000-0.5000 (  5942 PWs)   bands (ev):

   -34.5412 -34.5412 -34.5412 -34.5412 -34.1973 -34.1973 -34.1964 -34.1964
   -15.3235 -15.3235 -15.3234 -15.3234 -14.9906 -14.9906 -14.9898 -14.9898
   -11.1315 -11.1315 -11.1313 -11.1313 -11.0659 -11.0659 -11.0658 -11.0658
   -10.7524 -10.7524 -10.7517 -10.7517 -10.6700 -10.6700 -10.6694 -10.6694
     2.9509   2.9509   2.9517   2.9517   5.3178   5.3178   5.3184   5.3184
     5.5524   5.5524   5.5526   5.5526   5.8664   5.8664   5.8678   5.8678
     6.4110   6.4110   6.4119   6.4119  10.1842  10.1842  10.1854  10.1854
    11.4965  11.4965  11.4967  11.4967  11.8952  11.8952  11.8957  11.8957

          k = 0.0000 0.2500 0.2500 (  6016 PWs)   bands (ev):

   -34.5492 -34.5492 -34.5332 -34.5332 -34.2038 -34.2038 -34.1899 -34.1899
   -15.3431 -15.3431 -15.3054 -15.3054 -15.0289 -15.0289 -14.9531 -14.9531
   -11.2089 -11.2088 -11.1498 -11.1498 -11.0555 -11.0554 -10.9851 -10.9850
   -10.8211 -10.8210 -10.7190 -10.7190 -10.7102 -10.7102 -10.5701 -10.5701
     2.1878   2.1878   4.1548   4.1548   4.9304   4.9305   5.1013   5.1017
     5.1421   5.1423   5.2602   5.2605   5.8749   5.8750   6.4156   6.4157
     6.4666   6.4668   6.7231   6.7231   9.1110   9.1111  10.8014  10.8015
    11.3442  11.3442  12.2993  12.2994  12.4482  12.4484  12.5756  12.5758

          k = 0.0000 0.2500-0.5000 (  6018 PWs)   bands (ev):

   -34.5409 -34.5409 -34.5409 -34.5409 -34.1976 -34.1976 -34.1967 -34.1967
   -15.3208 -15.3208 -15.3208 -15.3208 -14.9966 -14.9966 -14.9958 -14.9958
   -11.1688 -11.1687 -11.1683 -11.1683 -10.9994 -10.9993 -10.9989 -10.9987
   -10.8177 -10.8174 -10.8173 -10.8170 -10.6381 -10.6379 -10.6379 -10.6377
     3.2299   3.2300   3.2307   3.2308   4.9920   4.9923   4.9927   4.9930
     5.5336   5.5337   5.5341   5.5342   5.8186   5.8187   5.8198   5.8200
     6.6353   6.6354   6.6361   6.6362  10.0567  10.0568  10.0574  10.0576
    11.7704  11.7705  11.7709  11.7711  12.0393  12.0397  12.0404  12.0411

          k = 0.0000-0.5000-0.5000 (  6024 PWs)   bands (ev):

   -34.5405 -34.5405 -34.5405 -34.5405 -34.1979 -34.1979 -34.1970 -34.1970
   -15.3180 -15.3180 -15.3180 -15.3180 -15.0027 -15.0027 -15.0019 -15.0019
   -11.1848 -11.1848 -11.1848 -11.1848 -10.9264 -10.9264 -10.9263 -10.9263
   -10.8932 -10.8932 -10.8930 -10.8930 -10.6224 -10.6224 -10.6222 -10.6222
     3.6932   3.6932   3.6939   3.6939   4.4482   4.4482   4.4484   4.4484
     5.6376   5.6376   5.6378   5.6378   5.7203   5.7203   5.7212   5.7212
     6.8756   6.8756   6.8765   6.8765   9.9376   9.9376   9.9377   9.9377
    11.5672  11.5672  11.5673  11.5673  12.1839  12.1839  12.1843  12.1843

          k = 0.2500 0.2500 0.2500 (  6007 PWs)   bands (ev):

   -34.5486 -34.5486 -34.5332 -34.5332 -34.2044 -34.2044 -34.1899 -34.1899
   -15.3440 -15.3440 -15.2981 -15.2981 -15.0305 -15.0305 -14.9648 -14.9648
   -11.2153 -11.2150 -11.1355 -11.1354 -11.0666 -11.0663 -10.9817 -10.9815
   -10.8114 -10.8111 -10.7383 -10.7379 -10.7156 -10.7153 -10.5640 -10.5638
     2.5277   2.5277   4.3367   4.3367   4.6431   4.6435   4.7371   4.7371
     5.0795   5.0798   5.4178   5.4183   5.6777   5.6779   6.3186   6.3187
     6.5958   6.5961   7.3645   7.3646   9.3616   9.3617  11.0480  11.0480
    11.2441  11.2442  11.9959  11.9959  12.0146  12.0149  12.1302  12.1302

          k = 0.2500 0.2500-0.5000 (  6004 PWs)   bands (ev):

   -34.5407 -34.5407 -34.5407 -34.5407 -34.1977 -34.1977 -34.1968 -34.1968
   -15.3205 -15.3205 -15.3205 -15.3205 -15.0020 -15.0019 -15.0011 -15.0011
   -11.1809 -11.1807 -11.1805 -11.1803 -11.0289 -11.0286 -11.0283 -11.0281
   -10.7857 -10.7855 -10.7852 -10.7850 -10.6234 -10.6231 -10.6230 -10.6229
     3.4237   3.4238   3.4243   3.4244   4.5664   4.5665   4.5670   4.5671
     5.4270   5.4277   5.4278   5.4282   5.8924   5.8927   5.8929   5.8934
     7.2396   7.2397   7.2412   7.2413  10.2667  10.2669  10.2675  10.2677
    11.3061  11.3063  11.3066  11.3068  11.5670  11.5674  11.5675  11.5678

          k = 0.2500-0.5000-0.5000 (  6000 PWs)   bands (ev):

   -34.5404 -34.5404 -34.5404 -34.5404 -34.1979 -34.1979 -34.1970 -34.1970
   -15.3208 -15.3208 -15.3208 -15.3208 -15.0066 -15.0066 -15.0058 -15.0058
   -11.2051 -11.2050 -11.2049 -11.2048 -11.0259 -11.0258 -11.0255 -11.0254
   -10.7866 -10.7864 -10.7861 -10.7859 -10.5955 -10.5953 -10.5952 -10.5950
     3.7491   3.7491   3.7498   3.7498   4.1103   4.1103   4.1105   4.1105
     5.2963   5.2964   5.2971   5.2973   6.0545   6.0547   6.0548   6.0552
     7.7987   7.7988   7.8000   7.8001  10.2946  10.2946  10.2947  10.2947
    10.9502  10.9502  10.9503  10.9503  11.3547  11.3549  11.3550  11.3553

          k =-0.5000-0.5000-0.5000 (  6008 PWs)   bands (ev):

   -34.5404 -34.5404 -34.5404 -34.5404 -34.1978 -34.1978 -34.1969 -34.1969
   -15.3237 -15.3237 -15.3237 -15.3237 -15.0106 -15.0106 -15.0097 -15.0097
   -11.2235 -11.2235 -11.2235 -11.2235 -11.0704 -11.0704 -11.0704 -11.0704
   -10.7341 -10.7341 -10.7339 -10.7339 -10.5698 -10.5698 -10.5696 -10.5696
     3.7893   3.7893   3.7901   3.7901   3.8784   3.8784   3.8785   3.8785
     5.0884   5.0884   5.0888   5.0888   6.3673   6.3673   6.3675   6.3675
     8.9364   8.9364   8.9372   8.9372  10.5764  10.5764  10.5764  10.5764
    10.7530  10.7530  10.7531  10.7531  10.8206  10.8206  10.8207  10.8207

          k = 0.2500 0.0000 0.0000 (  6023 PWs)   bands (ev):

   -34.5566 -34.5566 -34.5259 -34.5259 -34.2114 -34.2114 -34.1823 -34.1823
   -15.3688 -15.3688 -15.2770 -15.2770 -15.0566 -15.0565 -14.9249 -14.9249
   -11.2612 -11.2608 -11.1128 -11.1127 -11.0856 -11.0850 -10.9157 -10.9157
   -10.8529 -10.8523 -10.7880 -10.7876 -10.6646 -10.6646 -10.5135 -10.5135
     1.7746   1.7746   4.6959   4.6959   4.7600   4.7604   4.9014   4.9015
     4.9086   4.9094   4.9711   4.9711   6.0015   6.0017   6.0343   6.0347
     7.2422   7.2423   7.3048   7.3050   8.3606   8.3609  11.0641  11.0642
    11.1958  11.1964  12.0539  12.0544  12.4730  12.4735  12.5819  12.5824

          k =-0.5000 0.0000 0.0000 (  5942 PWs)   bands (ev):

   -34.5554 -34.5554 -34.5259 -34.5259 -34.2127 -34.2127 -34.1822 -34.1822
   -15.3678 -15.3678 -15.2583 -15.2583 -15.0559 -15.0559 -14.9456 -14.9456
   -11.2457 -11.2457 -11.0399 -11.0399 -11.0144 -11.0144 -10.9073 -10.9073
   -10.8989 -10.8989 -10.8158 -10.8158 -10.7845 -10.7845 -10.5316 -10.5316
     2.6507   2.6507   3.4965   3.4965   5.0717   5.0717   5.3008   5.3008
     5.3910   5.3910   5.5141   5.5141   5.5988   5.5988   5.7106   5.7106
     6.0019   6.0019   8.2400   8.2400   9.0226   9.0226  10.5453  10.5453
    11.3176  11.3176  11.7172  11.7172  11.8980  11.8980  12.0639  12.0639

          k = 0.0000 0.2500-0.2500 (  6016 PWs)   bands (ev):

   -34.5492 -34.5492 -34.5332 -34.5332 -34.2038 -34.2038 -34.1899 -34.1899
   -15.3431 -15.3431 -15.3054 -15.3054 -15.0290 -15.0289 -14.9531 -14.9531
   -11.2089 -11.2087 -11.1498 -11.1497 -11.0556 -11.0553 -10.9852 -10.9849
   -10.8213 -10.8208 -10.7192 -10.7189 -10.7102 -10.7101 -10.5702 -10.5701
     2.1878   2.1879   4.1545   4.1551   4.9303   4.9307   5.0997   5.1033
     5.1397   5.1448   5.2596   5.2610   5.8749   5.8750   6.4156   6.4157
     6.4664   6.4668   6.7229   6.7230   9.1110   9.1110  10.8014  10.8017
    11.3440  11.3444  12.2986  12.3000  12.4483  12.4484  12.5758  12.5760

          k = 0.2500 0.0000-0.2500 (  6016 PWs)   bands (ev):

   -34.5519 -34.5519 -34.5302 -34.5302 -34.2073 -34.2073 -34.1867 -34.1867
   -15.3540 -15.3540 -15.2891 -15.2891 -15.0403 -15.0403 -14.9473 -14.9473
   -11.2240 -11.2236 -11.1116 -11.1116 -11.0814 -11.0809 -10.9679 -10.9678
   -10.8105 -10.8101 -10.7700 -10.7698 -10.6967 -10.6965 -10.5585 -10.5584
     2.1833   2.1833   4.4060   4.4061   4.8208   4.8210   4.9529   4.9532
     5.1405   5.1407   5.1476   5.1478   5.8593   5.8609   6.0145   6.0159
     6.7222   6.7223   7.1608   7.1609   8.9564   8.9565  10.8455  10.8455
    11.3319  11.3321  12.3102  12.3109  12.5072  12.5076  12.5824  12.5840

          k =-0.2500 0.0000-0.2500 (  6016 PWs)   bands (ev):

   -34.5519 -34.5519 -34.5302 -34.5302 -34.2073 -34.2073 -34.1867 -34.1867
   -15.3540 -15.3540 -15.2891 -15.2891 -15.0403 -15.0403 -14.9473 -14.9473
   -11.2240 -11.2236 -11.1116 -11.1115 -11.0814 -11.0810 -10.9679 -10.9678
   -10.8105 -10.8101 -10.7700 -10.7698 -10.6967 -10.6965 -10.5585 -10.5584
     2.1833   2.1834   4.4060   4.4061   4.8208   4.8210   4.9530   4.9533
     5.1405   5.1407   5.1477   5.1479   5.8593   5.8609   6.0145   6.0159
     6.7221   6.7222   7.1607   7.1608   8.9563   8.9564  10.8456  10.8456
    11.3318  11.3321  12.3101  12.3110  12.5074  12.5076  12.5828  12.5834

          k = 0.2500 0.0000 0.5000 (  6018 PWs)   bands (ev):

   -34.5409 -34.5409 -34.5409 -34.5409 -34.1976 -34.1976 -34.1967 -34.1967
   -15.3202 -15.3202 -15.3201 -15.3201 -14.9973 -14.9973 -14.9965 -14.9965
   -11.1391 -11.1389 -11.1388 -11.1386 -11.0576 -11.0575 -11.0573 -11.0573
   -10.7578 -10.7577 -10.7573 -10.7573 -10.6695 -10.6693 -10.6690 -10.6689
     3.2423   3.2424   3.2431   3.2432   4.9692   4.9694   4.9696   4.9698
     5.5218   5.5219   5.5224   5.5224   5.8163   5.8163   5.8174   5.8175
     6.6525   6.6525   6.6537   6.6538  10.1016  10.1016  10.1022  10.1022
    11.8302  11.8307  11.8307  11.8310  11.9954  11.9959  11.9962  11.9965

          k =-0.5000-0.2500 0.0000 (  6018 PWs)   bands (ev):

   -34.5510 -34.5510 -34.5301 -34.5301 -34.2082 -34.2082 -34.1867 -34.1867
   -15.3536 -15.3536 -15.2762 -15.2762 -15.0412 -15.0412 -14.9633 -14.9632
   -11.2195 -11.2191 -11.0713 -11.0708 -11.0352 -11.0349 -10.9953 -10.9949
   -10.8191 -10.8185 -10.7893 -10.7890 -10.7464 -10.7460 -10.5715 -10.5712
     2.9721   2.9721   3.7336   3.7336   4.6386   4.6389   5.0660   5.0667
     5.5069   5.5074   5.5518   5.5521   5.6943   5.6945   5.8693   5.8694
     5.9182   5.9183   7.8804   7.8804   9.3612   9.3613  10.3826  10.3828
    11.7083  11.7087  11.8645  11.8647  12.0296  12.0298  12.0577  12.0583

          k =-0.5000 0.0000 0.5000 (  6024 PWs)   bands (ev):

   -34.5405 -34.5405 -34.5405 -34.5405 -34.1979 -34.1979 -34.1970 -34.1970
   -15.3168 -15.3168 -15.3167 -15.3167 -15.0041 -15.0041 -15.0033 -15.0033
   -11.1313 -11.1313 -11.1308 -11.1308 -11.0707 -11.0707 -11.0703 -11.0703
   -10.7467 -10.7467 -10.7459 -10.7459 -10.6795 -10.6795 -10.6786 -10.6786
     3.7706   3.7706   3.7713   3.7713   4.3467   4.3467   4.3475   4.3475
     5.6301   5.6301   5.6309   5.6309   5.7124   5.7124   5.7132   5.7132
     6.8957   6.8957   6.8973   6.8973  10.0419  10.0419  10.0421  10.0421
    11.7838  11.7838  11.7840  11.7840  11.9189  11.9189  11.9195  11.9195

          k =-0.2500 0.2500-0.2500 (  6007 PWs)   bands (ev):

   -34.5486 -34.5486 -34.5332 -34.5332 -34.2044 -34.2044 -34.1899 -34.1899
   -15.3440 -15.3440 -15.2981 -15.2981 -15.0305 -15.0305 -14.9648 -14.9648
   -11.2153 -11.2150 -11.1355 -11.1354 -11.0667 -11.0662 -10.9817 -10.9815
   -10.8116 -10.8109 -10.7382 -10.7379 -10.7157 -10.7153 -10.5640 -10.5638
     2.5277   2.5277   4.3365   4.3370   4.6434   4.6436   4.7364   4.7373
     5.0788   5.0806   5.4177   5.4181   5.6775   5.6785   6.3184   6.3186
     6.5957   6.5959   7.3648   7.3648   9.3617   9.3617  11.0476  11.0484
    11.2436  11.2446  11.9956  11.9962  12.0127  12.0167  12.1277  12.1326

          k = 0.2500-0.2500-0.2500 (  6007 PWs)   bands (ev):

   -34.5486 -34.5486 -34.5332 -34.5332 -34.2044 -34.2044 -34.1899 -34.1899
   -15.3440 -15.3440 -15.2981 -15.2981 -15.0305 -15.0305 -14.9648 -14.9647
   -11.2153 -11.2149 -11.1355 -11.1354 -11.0667 -11.0662 -10.9818 -10.9814
   -10.8115 -10.8110 -10.7382 -10.7378 -10.7157 -10.7153 -10.5640 -10.5638
     2.5276   2.5276   4.3366   4.3369   4.6432   4.6436   4.7367   4.7368
     5.0794   5.0798   5.4178   5.4183   5.6781   5.6783   6.3184   6.3185
     6.5958   6.5959   7.3650   7.3650   9.3617   9.3618  11.0480  11.0480
    11.2441  11.2441  11.9959  11.9963  12.0143  12.0146  12.1300  12.1300

          k =-0.2500 0.2500 0.5000 (  6004 PWs)   bands (ev):

   -34.5407 -34.5407 -34.5407 -34.5407 -34.1977 -34.1977 -34.1968 -34.1968
   -15.3205 -15.3205 -15.3205 -15.3205 -15.0020 -15.0019 -15.0011 -15.0011
   -11.1809 -11.1807 -11.1805 -11.1803 -11.0289 -11.0286 -11.0284 -11.0281
   -10.7857 -10.7855 -10.7852 -10.7850 -10.6233 -10.6232 -10.6231 -10.6228
     3.4236   3.4236   3.4243   3.4244   4.5665   4.5667   4.5670   4.5671
     5.4270   5.4272   5.4279   5.4285   5.8922   5.8927   5.8930   5.8933
     7.2402   7.2403   7.2408   7.2409  10.2668  10.2670  10.2672  10.2674
    11.3063  11.3064  11.3066  11.3067  11.5672  11.5674  11.5676  11.5679

          k =-0.5000-0.2500 0.2500 (  6004 PWs)   bands (ev):

   -34.5479 -34.5479 -34.5331 -34.5331 -34.2051 -34.2051 -34.1898 -34.1898
   -15.3450 -15.3449 -15.2902 -15.2901 -15.0321 -15.0321 -14.9770 -14.9770
   -11.2215 -11.2210 -11.1023 -11.1020 -11.0769 -11.0762 -11.0129 -11.0124
   -10.8028 -10.8020 -10.7362 -10.7358 -10.7124 -10.7119 -10.5723 -10.5719
     3.2150   3.2150   3.7735   3.7736   4.5471   4.5478   4.5770   4.5781
     4.9999   5.0012   5.6768   5.6769   5.8531   5.8535   5.9046   5.9050
     6.7166   6.7166   8.1595   8.1595   9.7266   9.7266  10.4704  10.4707
    11.1962  11.1966  11.4524  11.4529  11.4611  11.4614  11.6455  11.6457

          k = 0.5000-0.2500-0.2500 (  6004 PWs)   bands (ev):

   -34.5479 -34.5479 -34.5331 -34.5331 -34.2051 -34.2051 -34.1898 -34.1898
   -15.3449 -15.3449 -15.2902 -15.2902 -15.0321 -15.0321 -14.9770 -14.9770
   -11.2213 -11.2212 -11.1022 -11.1022 -11.0766 -11.0765 -11.0127 -11.0126
   -10.8024 -10.8023 -10.7360 -10.7360 -10.7122 -10.7122 -10.5721 -10.5721
     3.2149   3.2149   3.7735   3.7735   4.5473   4.5476   4.5777   4.5777
     5.0004   5.0006   5.6768   5.6770   5.8534   5.8535   5.9047   5.9047
     6.7166   6.7167   8.1595   8.1595   9.7266   9.7266  10.4705  10.4705
    11.1964  11.1964  11.4527  11.4529  11.4612  11.4612  11.6456  11.6457

          k =-0.5000 0.2500 0.5000 (  6000 PWs)   bands (ev):

   -34.5405 -34.5405 -34.5405 -34.5405 -34.1979 -34.1979 -34.1969 -34.1969
   -15.3202 -15.3202 -15.3202 -15.3202 -15.0073 -15.0073 -15.0065 -15.0065
   -11.1877 -11.1875 -11.1874 -11.1872 -11.0608 -11.0605 -11.0605 -11.0601
   -10.7505 -10.7501 -10.7500 -10.7496 -10.6146 -10.6143 -10.6142 -10.6139
     3.8321   3.8322   3.8327   3.8328   4.0189   4.0192   4.0197   4.0200
     5.2960   5.2963   5.2967   5.2969   6.0462   6.0465   6.0467   6.0469
     7.8009   7.8010   7.8022   7.8023  10.4003  10.4004  10.4005  10.4006
    11.0970  11.0971  11.0973  11.0974  11.1902  11.1908  11.1912  11.1916

     the Fermi energy is    10.2077 ev

!    total energy              =   -2250.78837227 Ry
     Harris-Foulkes estimate   =   -2250.78837227 Ry
     estimated scf accuracy    <          2.5E-10 Ry

     total all-electron energy =    -90255.131740 Ry

     The total energy is the sum of the following terms:

     one-electron contribution =     -39.73968395 Ry
     hartree contribution      =      41.88910369 Ry
     xc contribution           =    -258.66569971 Ry
     ewald contribution        =    -246.21421078 Ry
     one-center paw contrib.   =   -1748.05529211 Ry
     smearing contrib. (-TS)   =      -0.00258940 Ry

     convergence has been achieved in   9 iterations

     Forces acting on atoms (cartesian axes, Ry/au):

     atom    1 type  1   force =     0.00019579   -0.00043086   -0.00043086
     atom    2 type  1   force =    -0.00013325   -0.00037463   -0.00037463
     atom    3 type  1   force =    -0.00001984    0.00004070    0.00004264
     atom    4 type  1   force =    -0.00001984    0.00004264    0.00004070
     atom    5 type  2   force =    -0.00006072    0.00007893    0.00007893
     atom    6 type  2   force =    -0.00000516    0.00018055   -0.00003355
     atom    7 type  2   force =    -0.00000168    0.00006699    0.00006699
     atom    8 type  2   force =    -0.00000516   -0.00003355    0.00018055
     atom    9 type  2   force =     0.00000604    0.00011102    0.00009320
     atom   10 type  2   force =     0.00000689    0.00003063    0.00003063
     atom   11 type  2   force =     0.00000604    0.00009320    0.00011102
     atom   12 type  2   force =     0.00001015    0.00014089    0.00014089
     atom   13 type  2   force =    -0.00010610    0.00003717    0.00003717
     atom   14 type  2   force =     0.00012682    0.00001630    0.00001630

     Total force =     0.000961     Total SCF correction =     0.000021


     Computing stress (Cartesian axis) and pressure

     Message from routine stres:
     noncollinear stress + GGA not implemented

     Writing output data file 2301.save
 
     init_run     :      4.93s CPU      5.13s WALL (       2 calls)
     electrons    :    215.23s CPU    220.23s WALL (       8 calls)
     update_pot   :      2.25s CPU      2.89s WALL (       6 calls)
     forces       :     13.38s CPU     13.39s WALL (       8 calls)

     Called by init_run:
     wfcinit      :      3.93s CPU      4.05s WALL (       2 calls)
     potinit      :      0.46s CPU      0.51s WALL (       2 calls)

     Called by electrons:
     c_bands      :    179.51s CPU    182.18s WALL (      45 calls)
     sum_band     :     22.91s CPU     23.40s WALL (      45 calls)
     v_of_rho     :      0.15s CPU      0.16s WALL (      52 calls)
     newd         :      4.35s CPU      4.37s WALL (      52 calls)
     PAW_pot      :     11.23s CPU     11.47s WALL (      58 calls)
     mix_rho      :      0.18s CPU      0.18s WALL (      45 calls)

     Called by c_bands:
     init_us_2    :      0.81s CPU      0.83s WALL (    2544 calls)
     cegterg      :    164.59s CPU    167.16s WALL (    1080 calls)

     Called by sum_band:
     sum_band:bec :      5.50s CPU      5.50s WALL (    1224 calls)
     addusdens    :      1.12s CPU      1.13s WALL (      45 calls)

     Called by *egterg:
     h_psi        :     88.81s CPU     91.36s WALL (    5101 calls)
     s_psi        :     10.15s CPU     10.18s WALL (    5101 calls)
     g_psi        :      0.57s CPU      0.57s WALL (    3973 calls)
     cdiaghg      :     41.08s CPU     41.10s WALL (    4885 calls)

     Called by h_psi:
     h_psi:pot    :     87.98s CPU     90.53s WALL (    5101 calls)
     h_psi:calbec :      6.87s CPU      6.96s WALL (    5101 calls)
     vloc_psi     :     70.45s CPU     72.87s WALL (    5101 calls)
     add_vuspsi   :     10.64s CPU     10.67s WALL (    5101 calls)

     General routines
     calbec       :     11.14s CPU     11.27s WALL (    7093 calls)
     fft          :      0.19s CPU      0.20s WALL (    1038 calls)
     fftw         :     75.28s CPU     77.82s WALL (  921620 calls)
     davcio       :      0.00s CPU      0.02s WALL (      48 calls)
 
     Parallel routines
     fft_scatter  :     28.25s CPU     29.37s WALL (  922658 calls)
 
     PWSCF        :  4m 2.28s CPU     5m 5.51s WALL

 
   This run was terminated on:  17: 9:25  13Oct2022            

=------------------------------------------------------------------------------=
   JOB DONE.
=------------------------------------------------------------------------------=
Removing 2301 from /home/shaharpit/tmp
