
     Program PWSCF v.6.1 (svn rev. 13369) starts on 13Oct2022 at 17: 4:20 

     This program is part of the open-source Quantum ESPRESSO suite
     for quantum simulation of materials; please cite
         "P. Giannozzi et al., J. Phys.:Condens. Matter 21 395502 (2009);
          URL http://www.quantum-espresso.org", 
     in publications or presentations arising from this work. More details at
     http://www.quantum-espresso.org/quote

     Parallel version (MPI), running on    16 processors
     R & G space division:  proc/nbgrp/npool/nimage =      16
     Reading input from ./fcc_50.in

     Current dimensions of program PWSCF are:
     Max number of different atomic species (ntypx) = 10
     Max number of k-points (npk) =  40000
     Max angular momentum in pseudopotentials (lmaxx) =  3
               file Gd.rel-pbe-spdn-kjpaw_psl.1.0.0.UPF: wavefunction(s)  5P 5P renormalized
               file H.pbe-kjpaw_psl.0.1.UPF: wavefunction(s)  1S renormalized

     Subspace diagonalization in iterative solution of the eigenvalue problem:
     a serial algorithm will be used

 
     Parallelization info
     --------------------
     sticks:   dense  smooth     PW     G-vecs:    dense   smooth      PW
     Min          99      99     28                 2995     2995     467
     Max         100     100     30                 2998     2998     470
     Sum        1597    1597    465                47937    47937    7497
 


     bravais-lattice index     =            0
     lattice parameter (alat)  =      10.0212  a.u.
     unit-cell volume          =    1006.3788 (a.u.)^3
     number of atoms/cell      =            8
     number of atomic types    =            2
     number of electrons       =        48.00
     number of Kohn-Sham states=           58
     kinetic-energy cutoff     =      50.0000  Ry
     charge density cutoff     =     200.0000  Ry
     convergence threshold     =      1.0E-06
     mixing beta               =       0.7000
     number of iterations used =            8  plain     mixing
     Exchange-correlation      =  SLA  PW   PBX  PBC ( 1  4  3  4 0 0)
     nstep                     =          150

     Non magnetic calculation with spin-orbit


     celldm(1)=  10.021218  celldm(2)=   0.000000  celldm(3)=   0.000000
     celldm(4)=   0.000000  celldm(5)=   0.000000  celldm(6)=   0.000000

     crystal axes: (cart. coord. in units of alat)
               a(1) = (   1.000000   0.000000   0.000000 )  
               a(2) = (   0.000000   1.000000   0.000000 )  
               a(3) = (   0.000000   0.000000   1.000000 )  

     reciprocal axes: (cart. coord. in units 2 pi/alat)
               b(1) = (  1.000000  0.000000  0.000000 )  
               b(2) = (  0.000000  1.000000  0.000000 )  
               b(3) = (  0.000000  0.000000  1.000000 )  


     PseudoPot. # 1 for Gd read from file:
     /home/shaharpit/MeamGdH/dft/qe_potentials/Gd.rel-pbe-spdn-kjpaw_psl.1.0.0.UPF
     MD5 check sum: cf50ec46d1536b4a0251694df1946a53
     Pseudo is Projector augmented-wave + core cor, Zval = 11.0
     Generated using "atomic" code by A. Dal Corso  v.6.2.2
     Shape of augmentation charge: PSQ
     Using radial grid of 1263 points, 10 beta functions with: 
                l(1) =   0
                l(2) =   0
                l(3) =   1
                l(4) =   1
                l(5) =   1
                l(6) =   1
                l(7) =   2
                l(8) =   2
                l(9) =   2
               l(10) =   2
     Q(r) pseudized with 0 coefficients 


     PseudoPot. # 2 for  H read from file:
     /home/shaharpit/MeamGdH/dft/qe_potentials/H.pbe-kjpaw_psl.0.1.UPF
     MD5 check sum: fbb168fef676c0aaadbafd73f5b1efa8
     Pseudo is Projector augmented-wave, Zval =  1.0
     Generated using "atomic" code by A. Dal Corso  v.5.0.2 svn rev. 9415
     Shape of augmentation charge: PSQ
     Using radial grid of  929 points,  2 beta functions with: 
                l(1) =   0
                l(2) =   0
     Q(r) pseudized with 0 coefficients 


     atomic species   valence    mass     pseudopotential
        Gd            11.00   157.25000     Gd( 1.00)
        H              1.00     1.00794      H( 1.00)

      2 Sym. Ops. (no inversion) found



   Cartesian axes

     site n.     atom                  positions (alat units)
         1           Gd  tau(   1) = (   0.0000000   0.0000000   0.0000000  )
         2           Gd  tau(   2) = (   0.0000000   0.5000000   0.5000000  )
         3           Gd  tau(   3) = (   0.5000000   0.0000000   0.5000000  )
         4           Gd  tau(   4) = (   0.5000000   0.5000000   0.0000000  )
         5           H   tau(   5) = (   0.2500000   0.7539000   0.7539000  )
         6           H   tau(   6) = (   0.2500000   0.7501000   0.2500000  )
         7           H   tau(   7) = (   0.2500000   0.2500000   0.2500000  )
         8           H   tau(   8) = (   0.2500000   0.2500000   0.7501000  )

     number of k points=    24  gaussian smearing, width (Ry)=  0.0100
                       cart. coord. in units 2pi/alat
        k(    1) = (   0.0000000   0.0000000   0.0000000), wk =   0.0156250
        k(    2) = (   0.0000000   0.0000000   0.2500000), wk =   0.0625000
        k(    3) = (   0.0000000   0.0000000  -0.5000000), wk =   0.0312500
        k(    4) = (   0.0000000   0.2500000   0.2500000), wk =   0.0312500
        k(    5) = (   0.0000000   0.2500000  -0.5000000), wk =   0.0625000
        k(    6) = (   0.0000000  -0.5000000  -0.5000000), wk =   0.0156250
        k(    7) = (   0.2500000   0.2500000   0.2500000), wk =   0.0312500
        k(    8) = (   0.2500000   0.2500000  -0.5000000), wk =   0.0625000
        k(    9) = (   0.2500000  -0.5000000  -0.5000000), wk =   0.0312500
        k(   10) = (  -0.5000000  -0.5000000  -0.5000000), wk =   0.0156250
        k(   11) = (   0.2500000   0.0000000   0.0000000), wk =   0.0312500
        k(   12) = (  -0.5000000   0.0000000   0.0000000), wk =   0.0156250
        k(   13) = (   0.0000000   0.2500000  -0.2500000), wk =   0.0312500
        k(   14) = (   0.2500000   0.0000000  -0.2500000), wk =   0.0625000
        k(   15) = (  -0.2500000   0.0000000  -0.2500000), wk =   0.0625000
        k(   16) = (   0.2500000   0.0000000   0.5000000), wk =   0.0625000
        k(   17) = (  -0.5000000  -0.2500000   0.0000000), wk =   0.0625000
        k(   18) = (  -0.5000000   0.0000000   0.5000000), wk =   0.0312500
        k(   19) = (  -0.2500000   0.2500000  -0.2500000), wk =   0.0625000
        k(   20) = (   0.2500000  -0.2500000  -0.2500000), wk =   0.0312500
        k(   21) = (  -0.2500000   0.2500000   0.5000000), wk =   0.0625000
        k(   22) = (  -0.5000000  -0.2500000   0.2500000), wk =   0.0312500
        k(   23) = (   0.5000000  -0.2500000  -0.2500000), wk =   0.0312500
        k(   24) = (  -0.5000000   0.2500000   0.5000000), wk =   0.0625000

     Dense  grid:    47937 G-vectors     FFT dimensions: (  45,  45,  45)

     Estimated max dynamical RAM per process >      29.73MB

     Estimated total allocated dynamical RAM >     475.67MB

     Check: negative/imaginary core charge=   -0.000002    0.000000

     Initial potential from superposition of free atoms

     starting charge   47.92377, renormalised to   48.00000
     Starting wfc are  112 randomized atomic wfcs
     Checking if some PAW data can be deallocated... 

     total cpu time spent up to now is        4.7 secs

     per-process dynamical memory:    79.8 Mb

     Self-consistent Calculation

     iteration #  1     ecut=    50.00 Ry     beta=0.70
     Davidson diagonalization with overlap
     ethr =  1.00E-02,  avg # of iterations =  2.0

     Threshold (ethr) on eigenvalues was too large:
     Diagonalizing with lowered threshold

     Davidson diagonalization with overlap
     ethr =  8.91E-04,  avg # of iterations =  1.1

     total cpu time spent up to now is       13.9 secs

     total energy              =   -2243.23052557 Ry
     Harris-Foulkes estimate   =   -2243.52353248 Ry
     estimated scf accuracy    <       0.43890419 Ry

     iteration #  2     ecut=    50.00 Ry     beta=0.70
     Davidson diagonalization with overlap
     ethr =  9.14E-04,  avg # of iterations =  3.0

     total cpu time spent up to now is       20.1 secs

     total energy              =   -2243.30206421 Ry
     Harris-Foulkes estimate   =   -2243.44054758 Ry
     estimated scf accuracy    <       0.25636786 Ry

     iteration #  3     ecut=    50.00 Ry     beta=0.70
     Davidson diagonalization with overlap
     ethr =  5.34E-04,  avg # of iterations =  2.3

     total cpu time spent up to now is       25.6 secs

     total energy              =   -2243.36680922 Ry
     Harris-Foulkes estimate   =   -2243.37308084 Ry
     estimated scf accuracy    <       0.01319153 Ry

     iteration #  4     ecut=    50.00 Ry     beta=0.70
     Davidson diagonalization with overlap
     ethr =  2.75E-05,  avg # of iterations =  2.2

     total cpu time spent up to now is       31.0 secs

     total energy              =   -2243.36991832 Ry
     Harris-Foulkes estimate   =   -2243.36991411 Ry
     estimated scf accuracy    <       0.00016312 Ry

     iteration #  5     ecut=    50.00 Ry     beta=0.70
     Davidson diagonalization with overlap
     ethr =  3.40E-07,  avg # of iterations =  4.5

     total cpu time spent up to now is       38.4 secs

     total energy              =   -2243.36995670 Ry
     Harris-Foulkes estimate   =   -2243.36998613 Ry
     estimated scf accuracy    <       0.00005686 Ry

     iteration #  6     ecut=    50.00 Ry     beta=0.70
     Davidson diagonalization with overlap
     ethr =  1.18E-07,  avg # of iterations =  3.7

     total cpu time spent up to now is       45.5 secs

     total energy              =   -2243.36997088 Ry
     Harris-Foulkes estimate   =   -2243.36998030 Ry
     estimated scf accuracy    <       0.00002383 Ry

     iteration #  7     ecut=    50.00 Ry     beta=0.70
     Davidson diagonalization with overlap
     ethr =  4.97E-08,  avg # of iterations =  3.0

     total cpu time spent up to now is       51.3 secs

     End of self-consistent calculation

          k = 0.0000 0.0000 0.0000 (  6031 PWs)   bands (ev):

   -35.1031 -35.1031 -35.0535 -35.0535 -35.0470 -35.0470 -35.0391 -35.0391
   -15.8776 -15.8776 -15.8726 -15.8726 -15.8649 -15.8649 -15.6636 -15.6636
   -11.7645 -11.7645 -11.7643 -11.7643 -11.7386 -11.7386 -11.5073 -11.5073
   -11.4782 -11.4782 -11.4778 -11.4778 -11.2883 -11.2883 -11.2497 -11.2497
     2.3901   2.3901   4.7097   4.7097   4.7109   4.7109   5.0942   5.0942
     7.4377   7.4377   7.4378   7.4378   7.4431   7.4431   8.9649   8.9649
     9.9497   9.9497   9.9505   9.9505  10.5003  10.5003  10.5138  10.5138
    10.6790  10.6790

          k = 0.0000 0.0000 0.2500 (  6023 PWs)   bands (ev):

   -35.0953 -35.0953 -35.0571 -35.0571 -35.0500 -35.0500 -35.0403 -35.0403
   -15.8760 -15.8753 -15.8676 -15.8664 -15.8417 -15.8413 -15.6947 -15.6947
   -11.7406 -11.7403 -11.7153 -11.7150 -11.6992 -11.6990 -11.5389 -11.5385
   -11.5111 -11.5109 -11.4464 -11.4464 -11.3605 -11.3603 -11.2880 -11.2879
     2.7690   2.7692   4.4644   4.4645   4.8315   4.8326   5.1194   5.1204
     7.6235   7.6236   7.8503   7.8507   7.8542   7.8543   8.6544   8.6545
     9.6535   9.6537   9.8019   9.8024   9.9072   9.9073  10.7743  10.7743
    10.9176  10.9190

          k = 0.0000 0.0000-0.5000 (  5942 PWs)   bands (ev):

   -35.0804 -35.0804 -35.0705 -35.0705 -35.0511 -35.0511 -35.0408 -35.0408
   -15.8748 -15.8748 -15.8661 -15.8661 -15.7735 -15.7735 -15.7644 -15.7644
   -11.6950 -11.6950 -11.6878 -11.6878 -11.5789 -11.5789 -11.5729 -11.5729
   -11.5316 -11.5316 -11.5256 -11.5256 -11.3732 -11.3732 -11.3642 -11.3642
     3.6654   3.6654   3.6817   3.6817   5.0428   5.0428   5.0582   5.0582
     8.0479   8.0479   8.0597   8.0597   8.4746   8.4746   8.4752   8.4752
     9.3581   9.3581   9.3593   9.3593  10.6289  10.6290  10.6338  10.6339
    11.3296  11.3335

          k = 0.0000 0.2500 0.2500 (  6016 PWs)   bands (ev):

   -35.0887 -35.0887 -35.0574 -35.0574 -35.0539 -35.0539 -35.0427 -35.0427
   -15.8682 -15.8677 -15.8506 -15.8485 -15.8431 -15.8415 -15.7215 -15.7215
   -11.7076 -11.7066 -11.7041 -11.7028 -11.6888 -11.6885 -11.5373 -11.5373
   -11.4713 -11.4707 -11.4698 -11.4694 -11.4354 -11.4353 -11.3035 -11.3035
     3.0910   3.0910   4.5423   4.5427   4.6201   4.6220   5.0387   5.0387
     8.0299   8.0308   8.0314   8.0316   8.2122   8.2124   8.5449   8.5450
     9.5599   9.5602   9.5990   9.5999   9.6165   9.6171  10.7482  10.7482
    11.0587  11.0587

          k = 0.0000 0.2500-0.5000 (  6018 PWs)   bands (ev):

   -35.0767 -35.0767 -35.0667 -35.0667 -35.0548 -35.0548 -35.0444 -35.0444
   -15.8614 -15.8613 -15.8527 -15.8526 -15.7895 -15.7894 -15.7805 -15.7803
   -11.6959 -11.6956 -11.6925 -11.6922 -11.5867 -11.5846 -11.5824 -11.5802
   -11.5136 -11.5108 -11.5103 -11.5078 -11.3814 -11.3806 -11.3758 -11.3750
     3.8574   3.8580   3.8727   3.8733   4.8222   4.8228   4.8362   4.8368
     8.2723   8.2728   8.2809   8.2814   8.8156   8.8161   8.8164   8.8169
     9.1396   9.1398   9.1416   9.1418  10.2345  10.2347  10.2370  10.2372
    11.6636  11.6639

          k = 0.0000-0.5000-0.5000 (  6024 PWs)   bands (ev):

   -35.0706 -35.0706 -35.0608 -35.0608 -35.0608 -35.0608 -35.0503 -35.0503
   -15.8310 -15.8310 -15.8224 -15.8224 -15.8223 -15.8223 -15.8131 -15.8131
   -11.6570 -11.6570 -11.6556 -11.6556 -11.6556 -11.6556 -11.6542 -11.6542
   -11.4300 -11.4300 -11.4291 -11.4291 -11.4280 -11.4280 -11.4264 -11.4264
     4.3150   4.3150   4.3336   4.3336   4.3336   4.3336   4.3529   4.3529
     8.7411   8.7411   8.7424   8.7424   8.7426   8.7426   8.7438   8.7438
     9.6311   9.6311   9.6324   9.6324   9.6325   9.6325   9.6337   9.6337
    11.5317  11.5331

          k = 0.2500 0.2500 0.2500 (  6007 PWs)   bands (ev):

   -35.0833 -35.0833 -35.0598 -35.0598 -35.0539 -35.0539 -35.0456 -35.0456
   -15.8557 -15.8520 -15.8515 -15.8440 -15.8427 -15.8388 -15.7439 -15.7438
   -11.7175 -11.7167 -11.6988 -11.6975 -11.6928 -11.6918 -11.5116 -11.5115
   -11.4734 -11.4732 -11.4616 -11.4601 -11.4586 -11.4575 -11.3081 -11.3081
     3.2496   3.2498   4.5176   4.5197   4.5968   4.5996   5.0163   5.0164
     7.6591   7.6597   8.3881   8.3945   8.4014   8.4074   9.1782   9.1799
     9.4847   9.4861   9.5326   9.5348   9.5890   9.5914  10.7666  10.7666
    10.9801  10.9805

          k = 0.2500 0.2500-0.5000 (  6004 PWs)   bands (ev):

   -35.0742 -35.0742 -35.0643 -35.0643 -35.0572 -35.0572 -35.0468 -35.0468
   -15.8531 -15.8530 -15.8444 -15.8443 -15.8014 -15.8012 -15.7924 -15.7923
   -11.7128 -11.7126 -11.7093 -11.7091 -11.6300 -11.6294 -11.6258 -11.6252
   -11.4611 -11.4602 -11.4570 -11.4563 -11.3669 -11.3666 -11.3621 -11.3615
     3.8693   3.8700   3.8837   3.8843   4.7456   4.7462   4.7593   4.7600
     8.2479   8.2484   8.2539   8.2541   9.1322   9.1323   9.1333   9.1335
     9.4186   9.4189   9.4250   9.4254  10.2622  10.2626  10.2681  10.2686
    11.0767  11.0777

          k = 0.2500-0.5000-0.5000 (  6000 PWs)   bands (ev):

   -35.0705 -35.0705 -35.0608 -35.0608 -35.0608 -35.0608 -35.0503 -35.0503
   -15.8334 -15.8334 -15.8248 -15.8248 -15.8248 -15.8248 -15.8156 -15.8156
   -11.6965 -11.6965 -11.6956 -11.6953 -11.6915 -11.6913 -11.6903 -11.6902
   -11.3884 -11.3883 -11.3875 -11.3874 -11.3823 -11.3822 -11.3812 -11.3811
     4.2141   4.2143   4.2322   4.2322   4.2322   4.2322   4.2509   4.2510
     8.9231   8.9238   8.9265   8.9266   8.9266   8.9267   8.9292   8.9298
    10.0374  10.0386  10.0424  10.0426  10.0426  10.0427  10.0466  10.0478
    10.8769  10.8788

          k =-0.5000-0.5000-0.5000 (  6008 PWs)   bands (ev):

   -35.0705 -35.0705 -35.0608 -35.0608 -35.0608 -35.0608 -35.0502 -35.0502
   -15.8359 -15.8359 -15.8273 -15.8273 -15.8272 -15.8272 -15.8180 -15.8180
   -11.7260 -11.7260 -11.7250 -11.7250 -11.7201 -11.7201 -11.7191 -11.7191
   -11.3539 -11.3539 -11.3530 -11.3530 -11.3467 -11.3467 -11.3458 -11.3458
     4.1198   4.1198   4.1374   4.1374   4.1374   4.1374   4.1556   4.1556
     9.1357   9.1357   9.1397   9.1397   9.1398   9.1398   9.1435   9.1435
    10.4481  10.4484  10.4493  10.4494  10.4504  10.4505  10.4516  10.4520
    10.6406  10.6410

          k = 0.2500 0.0000 0.0000 (  6023 PWs)   bands (ev):

   -35.0953 -35.0953 -35.0588 -35.0588 -35.0470 -35.0470 -35.0417 -35.0417
   -15.8731 -15.8731 -15.8719 -15.8719 -15.8396 -15.8395 -15.6943 -15.6942
   -11.7441 -11.7438 -11.7437 -11.7437 -11.6755 -11.6753 -11.5064 -11.5063
   -11.5059 -11.5056 -11.4756 -11.4756 -11.3277 -11.3275 -11.3209 -11.3209
     2.6884   2.6886   4.7738   4.7738   4.7753   4.7754   5.1871   5.1871
     6.9507   6.9508   7.8466   7.8468   7.8471   7.8473   9.2922   9.2923
     9.6994   9.7003   9.7384   9.7385   9.7389   9.7389  10.7806  10.7809
    10.9245  10.9265

          k =-0.5000 0.0000 0.0000 (  5942 PWs)   bands (ev):

   -35.0784 -35.0784 -35.0741 -35.0741 -35.0470 -35.0470 -35.0432 -35.0432
   -15.8718 -15.8718 -15.8713 -15.8713 -15.7759 -15.7759 -15.7598 -15.7598
   -11.7169 -11.7169 -11.7168 -11.7168 -11.5451 -11.5451 -11.5403 -11.5403
   -11.5343 -11.5343 -11.4784 -11.4784 -11.4037 -11.4037 -11.3942 -11.3942
     3.0641   3.0641   4.8409   4.8409   4.8427   4.8427   5.2911   5.2911
     6.3527   6.3527   8.4520   8.4520   8.4528   8.4528   9.1495   9.1495
     9.5412   9.5412   9.5413   9.5413  10.2301  10.2301  10.7754  10.7754
    11.4063  11.4070

          k = 0.0000 0.2500-0.2500 (  6016 PWs)   bands (ev):

   -35.0887 -35.0887 -35.0574 -35.0574 -35.0539 -35.0539 -35.0427 -35.0427
   -15.8681 -15.8677 -15.8506 -15.8486 -15.8431 -15.8414 -15.7216 -15.7215
   -11.7077 -11.7066 -11.7041 -11.7027 -11.6888 -11.6885 -11.5376 -11.5371
   -11.4713 -11.4709 -11.4696 -11.4693 -11.4356 -11.4352 -11.3035 -11.3035
     3.0907   3.0913   4.5406   4.5412   4.6223   4.6229   5.0381   5.0396
     8.0263   8.0266   8.0353   8.0355   8.2122   8.2123   8.5449   8.5450
     9.5601   9.5602   9.5994   9.5998   9.6166   9.6167  10.7482  10.7482
    11.0575  11.0592

          k = 0.2500 0.0000-0.2500 (  6016 PWs)   bands (ev):

   -35.0886 -35.0886 -35.0593 -35.0593 -35.0514 -35.0514 -35.0434 -35.0434
   -15.8692 -15.8689 -15.8509 -15.8489 -15.8419 -15.8403 -15.7211 -15.7211
   -11.7327 -11.7324 -11.6961 -11.6959 -11.6768 -11.6766 -11.5114 -11.5111
   -11.4949 -11.4946 -11.4663 -11.4659 -11.4285 -11.4284 -11.3105 -11.3104
     3.0035   3.0039   4.4876   4.4879   4.8740   4.8750   5.1745   5.1755
     7.2840   7.2842   7.9656   7.9659   8.2391   8.2396   9.0991   9.0998
     9.5388   9.5398   9.5705   9.5727   9.6229   9.6254  10.7541  10.7544
    11.0598  11.0607

          k =-0.2500 0.0000-0.2500 (  6016 PWs)   bands (ev):

   -35.0886 -35.0886 -35.0593 -35.0593 -35.0514 -35.0514 -35.0434 -35.0434
   -15.8693 -15.8687 -15.8510 -15.8489 -15.8420 -15.8404 -15.7211 -15.7210
   -11.7326 -11.7323 -11.6965 -11.6962 -11.6771 -11.6770 -11.5112 -11.5108
   -11.4948 -11.4944 -11.4662 -11.4659 -11.4285 -11.4283 -11.3103 -11.3102
     3.0018   3.0021   4.4863   4.4864   4.8736   4.8745   5.1743   5.1752
     7.2857   7.2859   7.9630   7.9633   8.2436   8.2441   9.1086   9.1092
     9.5422   9.5427   9.5733   9.5763   9.6252   9.6281  10.7483  10.7486
    11.0573  11.0582

          k = 0.2500 0.0000 0.5000 (  6018 PWs)   bands (ev):

   -35.0767 -35.0767 -35.0668 -35.0668 -35.0548 -35.0548 -35.0444 -35.0444
   -15.8616 -15.8615 -15.8530 -15.8529 -15.7891 -15.7890 -15.7801 -15.7800
   -11.6986 -11.6983 -11.6953 -11.6950 -11.5828 -11.5825 -11.5781 -11.5778
   -11.5135 -11.5132 -11.5101 -11.5098 -11.3806 -11.3805 -11.3750 -11.3749
     3.7529   3.7532   3.7680   3.7682   5.0584   5.0587   5.0736   5.0739
     7.8470   7.8475   7.8540   7.8545   8.8316   8.8322   8.8359   8.8364
     9.4305   9.4308   9.4316   9.4318  10.1852  10.1854  10.1935  10.1938
    11.7169  11.7191

          k =-0.5000-0.2500 0.0000 (  6018 PWs)   bands (ev):

   -35.0750 -35.0750 -35.0703 -35.0703 -35.0510 -35.0510 -35.0463 -35.0463
   -15.8621 -15.8615 -15.8543 -15.8534 -15.7922 -15.7914 -15.7764 -15.7758
   -11.7235 -11.7234 -11.6926 -11.6923 -11.5911 -11.5909 -11.5426 -11.5425
   -11.5057 -11.5050 -11.4923 -11.4918 -11.3951 -11.3947 -11.3915 -11.3914
     3.2842   3.2845   4.5096   4.5097   4.9169   4.9176   5.2337   5.2345
     6.7335   6.7337   8.6885   8.6889   8.8327   8.8330   8.9055   8.9060
     9.2808   9.2809   9.5641   9.5644  10.1463  10.1464  10.1970  10.1970
    11.6678  11.6692

          k =-0.5000 0.0000 0.5000 (  6024 PWs)   bands (ev):

   -35.0706 -35.0706 -35.0609 -35.0609 -35.0608 -35.0608 -35.0502 -35.0502
   -15.8337 -15.8337 -15.8280 -15.8280 -15.8165 -15.8165 -15.8102 -15.8102
   -11.6776 -11.6776 -11.6769 -11.6769 -11.6356 -11.6356 -11.6343 -11.6343
   -11.4349 -11.4349 -11.4332 -11.4332 -11.4226 -11.4226 -11.4215 -11.4215
     3.8434   3.8434   3.8568   3.8568   5.0746   5.0746   5.0896   5.0896
     7.6864   7.6864   7.6870   7.6870   9.4959   9.4959   9.4966   9.4966
     9.5505   9.5505   9.5509   9.5509   9.6887   9.6887   9.6932   9.6933
    11.5784  11.5801

          k =-0.2500 0.2500-0.2500 (  6007 PWs)   bands (ev):

   -35.0833 -35.0833 -35.0598 -35.0598 -35.0539 -35.0539 -35.0456 -35.0456
   -15.8556 -15.8520 -15.8515 -15.8440 -15.8427 -15.8387 -15.7440 -15.7438
   -11.7173 -11.7170 -11.6987 -11.6973 -11.6924 -11.6913 -11.5118 -11.5118
   -11.4736 -11.4731 -11.4617 -11.4605 -11.4586 -11.4574 -11.3083 -11.3082
     3.2515   3.2521   4.5179   4.5185   4.6005   4.6011   5.0150   5.0164
     7.6581   7.6586   8.3872   8.3874   8.4027   8.4029   9.1731   9.1735
     9.4820   9.4823   9.5329   9.5329   9.5894   9.5895  10.7679  10.7686
    10.9816  10.9825

          k = 0.2500-0.2500-0.2500 (  6007 PWs)   bands (ev):

   -35.0833 -35.0833 -35.0598 -35.0598 -35.0539 -35.0539 -35.0456 -35.0456
   -15.8556 -15.8519 -15.8515 -15.8440 -15.8426 -15.8387 -15.7440 -15.7439
   -11.7173 -11.7170 -11.6983 -11.6971 -11.6920 -11.6912 -11.5122 -11.5121
   -11.4733 -11.4732 -11.4618 -11.4608 -11.4588 -11.4574 -11.3084 -11.3084
     3.2537   3.2539   4.5196   4.5221   4.5989   4.6021   5.0149   5.0149
     7.6570   7.6576   8.3822   8.3887   8.3960   8.4021   9.1665   9.1681
     9.4775   9.4795   9.5320   9.5332   9.5875   9.5896  10.7701  10.7701
    10.9838  10.9841

          k =-0.2500 0.2500 0.5000 (  6004 PWs)   bands (ev):

   -35.0742 -35.0742 -35.0643 -35.0643 -35.0572 -35.0572 -35.0468 -35.0468
   -15.8530 -15.8530 -15.8444 -15.8442 -15.8014 -15.8014 -15.7925 -15.7923
   -11.7125 -11.7122 -11.7090 -11.7088 -11.6301 -11.6295 -11.6260 -11.6254
   -11.4610 -11.4602 -11.4572 -11.4563 -11.3672 -11.3666 -11.3621 -11.3618
     3.8719   3.8725   3.8862   3.8870   4.7446   4.7453   4.7583   4.7590
     8.2449   8.2451   8.2507   8.2512   9.1306   9.1309   9.1319   9.1321
     9.4147   9.4151   9.4212   9.4215  10.2642  10.2647  10.2702  10.2706
    11.0760  11.0768

          k =-0.5000-0.2500 0.2500 (  6004 PWs)   bands (ev):

   -35.0729 -35.0729 -35.0676 -35.0676 -35.0539 -35.0539 -35.0481 -35.0481
   -15.8534 -15.8524 -15.8463 -15.8448 -15.8037 -15.8024 -15.7899 -15.7890
   -11.7288 -11.7287 -11.7054 -11.7054 -11.6397 -11.6397 -11.6026 -11.6026
   -11.4547 -11.4545 -11.4481 -11.4477 -11.3740 -11.3736 -11.3705 -11.3701
     3.4412   3.4417   4.4972   4.4978   4.5806   4.5812   4.9665   4.9676
     7.2931   7.2938   8.9611   8.9613   9.0259   9.0260   9.3447   9.3453
     9.3683   9.3692   9.3766   9.3770  10.2594  10.2604  10.2725  10.2737
    10.9704  10.9709

          k = 0.5000-0.2500-0.2500 (  6004 PWs)   bands (ev):

   -35.0729 -35.0729 -35.0676 -35.0676 -35.0539 -35.0539 -35.0481 -35.0481
   -15.8534 -15.8524 -15.8463 -15.8448 -15.8037 -15.8024 -15.7899 -15.7890
   -11.7290 -11.7285 -11.7055 -11.7053 -11.6397 -11.6397 -11.6027 -11.6026
   -11.4547 -11.4545 -11.4481 -11.4477 -11.3738 -11.3737 -11.3704 -11.3703
     3.4414   3.4414   4.4987   4.4992   4.5787   4.5804   4.9670   4.9670
     7.2936   7.2936   8.9605   8.9617   9.0252   9.0265   9.3455   9.3464
     9.3671   9.3690   9.3764   9.3764  10.2585  10.2586  10.2741  10.2743
    10.9710  10.9711

          k =-0.5000 0.2500 0.5000 (  6000 PWs)   bands (ev):

   -35.0706 -35.0706 -35.0608 -35.0608 -35.0608 -35.0608 -35.0502 -35.0502
   -15.8350 -15.8348 -15.8289 -15.8288 -15.8208 -15.8207 -15.8141 -15.8139
   -11.7081 -11.7077 -11.7050 -11.7043 -11.6834 -11.6826 -11.6794 -11.6791
   -11.3896 -11.3887 -11.3884 -11.3868 -11.3824 -11.3806 -11.3802 -11.3796
     3.8897   3.8905   3.9029   3.9036   4.6599   4.6607   4.6732   4.6741
     8.2916   8.2923   8.2933   8.2939   9.4258   9.4265   9.4276   9.4282
     9.9461   9.9470   9.9474   9.9482  10.1195  10.1202  10.1251  10.1257
    10.8912  10.8939

     the Fermi energy is     9.3051 ev

!    total energy              =   -2243.36997519 Ry
     Harris-Foulkes estimate   =   -2243.36997514 Ry
     estimated scf accuracy    <       0.00000012 Ry

     total all-electron energy =    -90247.713369 Ry

     The total energy is the sum of the following terms:

     one-electron contribution =     -57.49245074 Ry
     hartree contribution      =      46.18572926 Ry
     xc contribution           =    -254.07702335 Ry
     ewald contribution        =    -229.92053629 Ry
     one-center paw contrib.   =   -1748.06145290 Ry
     smearing contrib. (-TS)   =      -0.00424117 Ry

     convergence has been achieved in   7 iterations

     Forces acting on atoms (cartesian axes, Ry/au):

     atom    1 type  1   force =     0.03287848    0.00092252    0.00092252
     atom    2 type  1   force =     0.03396881    0.00079212    0.00079212
     atom    3 type  1   force =    -0.03343869    0.00026359    0.00026464
     atom    4 type  1   force =    -0.03343869    0.00026464    0.00026359
     atom    5 type  2   force =     0.00012108   -0.00235900   -0.00235900
     atom    6 type  2   force =    -0.00003175   -0.00008804    0.00014634
     atom    7 type  2   force =    -0.00002749    0.00005783    0.00005783
     atom    8 type  2   force =    -0.00003175    0.00014634   -0.00008804

     Total force =     0.066975     Total SCF correction =     0.000232


     Computing stress (Cartesian axis) and pressure

     Message from routine stres:
     noncollinear stress + GGA not implemented

     BFGS Geometry Optimization

     number of scf cycles    =   1
     number of bfgs steps    =   0

     enthalpy new            =   -2243.3699751896 Ry

     new trust radius        =       0.0339872770 bohr
     new conv_thr            =       0.0000010000 Ry

     new unit-cell volume =   1006.37882 a.u.^3 (   149.12995 Ang^3 )
     density =      7.04871 g/cm^3

CELL_PARAMETERS (angstrom)
   5.303000000   0.000000000   0.000000000
   0.000000000   5.303000000   0.000000000
   0.000000000   0.000000000   5.303000000

ATOMIC_POSITIONS (crystal)
Gd       0.003280887   0.000092057   0.000092057
Gd       0.003389689   0.500079044   0.500079044
Gd       0.496663211   0.000026303   0.500026408
Gd       0.496663211   0.500026408   0.000026303
H        0.250012082   0.753664600   0.753664600
H        0.249996832   0.750091215   0.250014603
H        0.249997257   0.250005771   0.250005771
H        0.249996832   0.250014603   0.750091215



     Writing output data file 2303.save
     NEW-OLD atomic charge density approx. for the potential

     Check: negative/imaginary core charge=   -0.000002    0.000000

     total cpu time spent up to now is       56.2 secs

     per-process dynamical memory:   118.6 Mb

     Self-consistent Calculation

     iteration #  1     ecut=    50.00 Ry     beta=0.70
     Davidson diagonalization with overlap
     ethr =  1.00E-06,  avg # of iterations =  5.7

     total cpu time spent up to now is       65.3 secs

     total energy              =   -2243.37396645 Ry
     Harris-Foulkes estimate   =   -2243.37855404 Ry
     estimated scf accuracy    <       0.00049279 Ry

     iteration #  2     ecut=    50.00 Ry     beta=0.70
     Davidson diagonalization with overlap
     ethr =  1.03E-06,  avg # of iterations =  3.2

     total cpu time spent up to now is       70.8 secs

     total energy              =   -2243.37404271 Ry
     Harris-Foulkes estimate   =   -2243.37436042 Ry
     estimated scf accuracy    <       0.00063761 Ry

     iteration #  3     ecut=    50.00 Ry     beta=0.70
     Davidson diagonalization with overlap
     ethr =  1.03E-06,  avg # of iterations =  2.2

     total cpu time spent up to now is       76.7 secs

     total energy              =   -2243.37415447 Ry
     Harris-Foulkes estimate   =   -2243.37416931 Ry
     estimated scf accuracy    <       0.00000245 Ry

     iteration #  4     ecut=    50.00 Ry     beta=0.70
     Davidson diagonalization with overlap
     ethr =  5.11E-09,  avg # of iterations =  4.0

     total cpu time spent up to now is       82.7 secs

     End of self-consistent calculation

          k = 0.0000 0.0000 0.0000 (  6031 PWs)   bands (ev):

   -35.1034 -35.1034 -35.0528 -35.0528 -35.0471 -35.0471 -35.0402 -35.0402
   -15.8787 -15.8787 -15.8746 -15.8746 -15.8677 -15.8677 -15.6644 -15.6644
   -11.7699 -11.7699 -11.7697 -11.7697 -11.7416 -11.7416 -11.5108 -11.5108
   -11.4790 -11.4790 -11.4787 -11.4787 -11.2906 -11.2906 -11.2496 -11.2496
     2.3707   2.3707   4.6727   4.6727   4.6738   4.6738   5.0036   5.0036
     7.4349   7.4349   7.4352   7.4352   7.4377   7.4377   8.9725   8.9725
     9.9749   9.9749   9.9756   9.9756  10.4924  10.4924  10.5047  10.5047
    10.6710  10.6710

          k = 0.0000 0.0000 0.2500 (  6023 PWs)   bands (ev):

   -35.0955 -35.0955 -35.0568 -35.0568 -35.0499 -35.0499 -35.0413 -35.0413
   -15.8774 -15.8766 -15.8699 -15.8688 -15.8436 -15.8432 -15.6957 -15.6956
   -11.7480 -11.7477 -11.7186 -11.7183 -11.7024 -11.7022 -11.5426 -11.5423
   -11.5120 -11.5118 -11.4469 -11.4468 -11.3625 -11.3623 -11.2881 -11.2880
     2.7489   2.7491   4.4331   4.4333   4.7870   4.7880   5.0343   5.0352
     7.6100   7.6100   7.8476   7.8481   7.8497   7.8500   8.6542   8.6542
     9.6774   9.6776   9.8255   9.8260   9.9380   9.9381  10.7631  10.7631
    10.9058  10.9071

          k = 0.0000 0.0000-0.5000 (  5942 PWs)   bands (ev):

   -35.0799 -35.0799 -35.0712 -35.0712 -35.0507 -35.0507 -35.0417 -35.0417
   -15.8761 -15.8761 -15.8686 -15.8686 -15.7743 -15.7743 -15.7664 -15.7664
   -11.7003 -11.7003 -11.6945 -11.6945 -11.5825 -11.5825 -11.5775 -11.5775
   -11.5313 -11.5313 -11.5265 -11.5265 -11.3728 -11.3728 -11.3652 -11.3652
     3.6428   3.6428   3.6580   3.6580   4.9772   4.9772   4.9917   4.9917
     8.0340   8.0340   8.0450   8.0450   8.4726   8.4726   8.4733   8.4733
     9.3863   9.3863   9.3876   9.3876  10.6515  10.6515  10.6557  10.6557
    11.2829  11.2861

          k = 0.0000 0.2500 0.2500 (  6016 PWs)   bands (ev):

   -35.0887 -35.0887 -35.0569 -35.0569 -35.0541 -35.0541 -35.0437 -35.0437
   -15.8696 -15.8692 -15.8528 -15.8511 -15.8446 -15.8433 -15.7227 -15.7227
   -11.7152 -11.7144 -11.7102 -11.7095 -11.6890 -11.6888 -11.5423 -11.5423
   -11.4746 -11.4743 -11.4671 -11.4667 -11.4361 -11.4359 -11.3038 -11.3038
     3.0687   3.0687   4.5018   4.5022   4.5820   4.5837   4.9597   4.9597
     8.0180   8.0188   8.0193   8.0195   8.2133   8.2134   8.5456   8.5457
     9.5914   9.5917   9.6277   9.6284   9.6505   9.6510  10.7441  10.7441
    11.0421  11.0421

          k = 0.0000 0.2500-0.5000 (  6018 PWs)   bands (ev):

   -35.0760 -35.0760 -35.0673 -35.0673 -35.0545 -35.0545 -35.0455 -35.0455
   -15.8627 -15.8625 -15.8551 -15.8550 -15.7904 -15.7903 -15.7826 -15.7825
   -11.7010 -11.7005 -11.6982 -11.6977 -11.5931 -11.5906 -11.5896 -11.5870
   -11.5115 -11.5091 -11.5087 -11.5064 -11.3813 -11.3805 -11.3765 -11.3757
     3.8286   3.8292   3.8428   3.8434   4.7625   4.7631   4.7756   4.7762
     8.2660   8.2665   8.2741   8.2746   8.8047   8.8051   8.8052   8.8057
     9.1829   9.1830   9.1848   9.1848  10.2537  10.2539  10.2555  10.2557
    11.5966  11.5968

          k = 0.0000-0.5000-0.5000 (  6024 PWs)   bands (ev):

   -35.0695 -35.0695 -35.0610 -35.0610 -35.0610 -35.0610 -35.0518 -35.0518
   -15.8315 -15.8315 -15.8241 -15.8241 -15.8240 -15.8240 -15.8160 -15.8160
   -11.6623 -11.6623 -11.6609 -11.6609 -11.6607 -11.6607 -11.6593 -11.6593
   -11.4300 -11.4300 -11.4291 -11.4291 -11.4278 -11.4278 -11.4265 -11.4265
     4.2717   4.2717   4.2886   4.2886   4.2888   4.2888   4.3067   4.3067
     8.7558   8.7558   8.7571   8.7571   8.7574   8.7574   8.7589   8.7589
     9.6439   9.6439   9.6442   9.6442   9.6443   9.6443   9.6446   9.6446
    11.4941  11.4953

          k = 0.2500 0.2500 0.2500 (  6007 PWs)   bands (ev):

   -35.0833 -35.0833 -35.0592 -35.0592 -35.0540 -35.0540 -35.0468 -35.0468
   -15.8571 -15.8537 -15.8530 -15.8456 -15.8454 -15.8413 -15.7448 -15.7447
   -11.7276 -11.7269 -11.6993 -11.6973 -11.6969 -11.6949 -11.5206 -11.5205
   -11.4701 -11.4689 -11.4669 -11.4644 -11.4548 -11.4539 -11.3090 -11.3090
     3.2238   3.2240   4.4775   4.4793   4.5586   4.5611   4.9385   4.9385
     7.6668   7.6673   8.3802   8.3859   8.3933   8.3985   9.1764   9.1777
     9.5185   9.5194   9.5549   9.5568   9.6145   9.6165  10.7578  10.7578
    10.9725  10.9728

          k = 0.2500 0.2500-0.5000 (  6004 PWs)   bands (ev):

   -35.0735 -35.0735 -35.0648 -35.0648 -35.0570 -35.0570 -35.0480 -35.0480
   -15.8545 -15.8543 -15.8469 -15.8469 -15.8022 -15.8020 -15.7944 -15.7944
   -11.7175 -11.7172 -11.7147 -11.7143 -11.6342 -11.6333 -11.6305 -11.6296
   -11.4612 -11.4601 -11.4578 -11.4568 -11.3674 -11.3670 -11.3633 -11.3626
     3.8395   3.8402   3.8529   3.8535   4.6888   4.6894   4.7017   4.7023
     8.2531   8.2536   8.2587   8.2589   9.1220   9.1220   9.1232   9.1233
     9.4529   9.4532   9.4591   9.4594  10.2598  10.2602  10.2652  10.2656
    11.0724  11.0734

          k = 0.2500-0.5000-0.5000 (  6000 PWs)   bands (ev):

   -35.0695 -35.0695 -35.0609 -35.0609 -35.0609 -35.0609 -35.0518 -35.0518
   -15.8339 -15.8339 -15.8265 -15.8265 -15.8264 -15.8264 -15.8185 -15.8185
   -11.7006 -11.7005 -11.6996 -11.6994 -11.6963 -11.6961 -11.6950 -11.6950
   -11.3887 -11.3886 -11.3878 -11.3878 -11.3833 -11.3833 -11.3825 -11.3824
     4.1734   4.1735   4.1899   4.1900   4.1902   4.1902   4.2075   4.2076
     8.9395   8.9401   8.9426   8.9427   8.9427   8.9429   8.9451   8.9458
    10.0408  10.0419  10.0451  10.0452  10.0453  10.0454  10.0486  10.0497
    10.8631  10.8649

          k =-0.5000-0.5000-0.5000 (  6008 PWs)   bands (ev):

   -35.0694 -35.0694 -35.0609 -35.0609 -35.0609 -35.0609 -35.0517 -35.0517
   -15.8364 -15.8364 -15.8290 -15.8290 -15.8289 -15.8289 -15.8210 -15.8210
   -11.7296 -11.7296 -11.7286 -11.7286 -11.7246 -11.7246 -11.7235 -11.7235
   -11.3545 -11.3545 -11.3538 -11.3538 -11.3483 -11.3483 -11.3475 -11.3475
     4.0813   4.0813   4.0975   4.0975   4.0977   4.0977   4.1146   4.1146
     9.1526   9.1526   9.1564   9.1564   9.1566   9.1566   9.1599   9.1599
    10.4390  10.4390  10.4400  10.4400  10.4410  10.4410  10.4421  10.4421
    10.6318  10.6321

          k = 0.2500 0.0000 0.0000 (  6023 PWs)   bands (ev):

   -35.0956 -35.0956 -35.0581 -35.0581 -35.0471 -35.0471 -35.0428 -35.0428
   -15.8748 -15.8748 -15.8739 -15.8739 -15.8420 -15.8420 -15.6946 -15.6946
   -11.7501 -11.7499 -11.7498 -11.7498 -11.6792 -11.6790 -11.5065 -11.5065
   -11.5060 -11.5059 -11.4795 -11.4795 -11.3267 -11.3266 -11.3228 -11.3228
     2.6631   2.6633   4.7350   4.7351   4.7365   4.7366   5.0902   5.0902
     6.9574   6.9575   7.8422   7.8424   7.8427   7.8428   9.3082   9.3083
     9.7318   9.7325   9.7677   9.7678   9.7681   9.7682  10.7682  10.7684
    10.9139  10.9157

          k =-0.5000 0.0000 0.0000 (  5942 PWs)   bands (ev):

   -35.0803 -35.0803 -35.0720 -35.0720 -35.0471 -35.0471 -35.0441 -35.0441
   -15.8736 -15.8736 -15.8732 -15.8732 -15.7841 -15.7841 -15.7542 -15.7542
   -11.7242 -11.7242 -11.7241 -11.7241 -11.5541 -11.5541 -11.5393 -11.5393
   -11.5380 -11.5380 -11.4672 -11.4672 -11.4156 -11.4156 -11.3880 -11.3880
     3.0286   3.0286   4.8002   4.8002   4.8019   4.8019   5.1861   5.1861
     6.3761   6.3761   8.4429   8.4429   8.4436   8.4436   9.2001   9.2001
     9.5741   9.5741   9.5742   9.5742  10.3349  10.3349  10.6752  10.6752
    11.4223  11.4229

          k = 0.0000 0.2500-0.2500 (  6016 PWs)   bands (ev):

   -35.0887 -35.0887 -35.0569 -35.0569 -35.0541 -35.0541 -35.0437 -35.0437
   -15.8696 -15.8692 -15.8528 -15.8512 -15.8446 -15.8433 -15.7228 -15.7226
   -11.7152 -11.7145 -11.7102 -11.7094 -11.6889 -11.6888 -11.5426 -11.5421
   -11.4745 -11.4743 -11.4671 -11.4667 -11.4363 -11.4358 -11.3038 -11.3038
     3.0684   3.0690   4.5003   4.5008   4.5839   4.5844   4.9592   4.9606
     8.0146   8.0148   8.0229   8.0231   8.2132   8.2133   8.5456   8.5457
     9.5916   9.5916   9.6280   9.6283   9.6506   9.6507  10.7441  10.7441
    11.0410  11.0426

          k = 0.2500 0.0000-0.2500 (  6016 PWs)   bands (ev):

   -35.0888 -35.0888 -35.0587 -35.0587 -35.0516 -35.0516 -35.0444 -35.0444
   -15.8711 -15.8708 -15.8522 -15.8503 -15.8445 -15.8430 -15.7218 -15.7217
   -11.7415 -11.7412 -11.6982 -11.6979 -11.6808 -11.6806 -11.5129 -11.5126
   -11.5008 -11.5005 -11.4658 -11.4655 -11.4271 -11.4269 -11.3112 -11.3112
     2.9786   2.9789   4.4548   4.4551   4.8282   4.8291   5.0860   5.0868
     7.2906   7.2907   7.9565   7.9568   8.2354   8.2358   9.1024   9.1029
     9.5738   9.5748   9.5913   9.5929   9.6501   9.6522  10.7440  10.7443
    11.0493  11.0501

          k =-0.2500 0.0000-0.2500 (  6016 PWs)   bands (ev):

   -35.0888 -35.0888 -35.0586 -35.0586 -35.0516 -35.0516 -35.0444 -35.0444
   -15.8712 -15.8707 -15.8523 -15.8504 -15.8446 -15.8430 -15.7217 -15.7216
   -11.7414 -11.7411 -11.6985 -11.6982 -11.6811 -11.6810 -11.5127 -11.5123
   -11.5007 -11.5003 -11.4657 -11.4655 -11.4270 -11.4268 -11.3111 -11.3111
     2.9770   2.9773   4.4535   4.4536   4.8278   4.8287   5.0858   5.0866
     7.2922   7.2923   7.9545   7.9547   8.2397   8.2401   9.1112   9.1117
     9.5774   9.5777   9.5937   9.5963   9.6521   9.6545  10.7381  10.7383
    11.0467  11.0475

          k = 0.2500 0.0000 0.5000 (  6018 PWs)   bands (ev):

   -35.0761 -35.0761 -35.0674 -35.0674 -35.0544 -35.0544 -35.0454 -35.0454
   -15.8631 -15.8630 -15.8557 -15.8556 -15.7897 -15.7896 -15.7819 -15.7818
   -11.7040 -11.7038 -11.7013 -11.7011 -11.5873 -11.5870 -11.5831 -11.5828
   -11.5127 -11.5124 -11.5099 -11.5096 -11.3808 -11.3807 -11.3760 -11.3758
     3.7276   3.7278   3.7416   3.7418   4.9923   4.9925   5.0066   5.0068
     7.8479   7.8484   7.8541   7.8546   8.8276   8.8282   8.8315   8.8320
     9.4612   9.4614   9.4624   9.4626  10.1758  10.1760  10.1837  10.1839
    11.7278  11.7306

          k =-0.5000-0.2500 0.0000 (  6018 PWs)   bands (ev):

   -35.0761 -35.0761 -35.0688 -35.0688 -35.0512 -35.0512 -35.0473 -35.0473
   -15.8645 -15.8641 -15.8552 -15.8546 -15.7990 -15.7985 -15.7723 -15.7720
   -11.7343 -11.7341 -11.6928 -11.6925 -11.6002 -11.6001 -11.5413 -11.5412
   -11.5110 -11.5104 -11.4880 -11.4876 -11.3976 -11.3972 -11.3901 -11.3900
     3.2518   3.2520   4.4753   4.4754   4.8696   4.8703   5.1411   5.1418
     6.7527   6.7529   8.6995   8.7000   8.8235   8.8237   8.9006   8.9010
     9.3252   9.3252   9.5960   9.5962  10.1400  10.1401  10.2122  10.2123
    11.6171  11.6183

          k =-0.5000 0.0000 0.5000 (  6024 PWs)   bands (ev):

   -35.0700 -35.0700 -35.0614 -35.0614 -35.0605 -35.0605 -35.0514 -35.0514
   -15.8371 -15.8371 -15.8313 -15.8313 -15.8164 -15.8164 -15.8101 -15.8101
   -11.6855 -11.6855 -11.6852 -11.6852 -11.6364 -11.6364 -11.6348 -11.6348
   -11.4378 -11.4378 -11.4367 -11.4367 -11.4212 -11.4212 -11.4201 -11.4201
     3.8150   3.8150   3.8274   3.8274   5.0080   5.0080   5.0220   5.0220
     7.6978   7.6978   7.6984   7.6984   9.5122   9.5122   9.5127   9.5127
     9.5521   9.5521   9.5529   9.5529   9.6886   9.6886   9.6921   9.6921
    11.5774  11.5798

          k =-0.2500 0.2500-0.2500 (  6007 PWs)   bands (ev):

   -35.0833 -35.0833 -35.0592 -35.0592 -35.0540 -35.0540 -35.0468 -35.0468
   -15.8570 -15.8537 -15.8530 -15.8456 -15.8454 -15.8412 -15.7448 -15.7447
   -11.7273 -11.7272 -11.6993 -11.6972 -11.6964 -11.6945 -11.5209 -11.5208
   -11.4702 -11.4689 -11.4669 -11.4645 -11.4548 -11.4538 -11.3091 -11.3091
     3.2256   3.2262   4.4779   4.4784   4.5618   4.5623   4.9373   4.9386
     7.6658   7.6662   8.3791   8.3792   8.3940   8.3942   9.1718   9.1722
     9.5153   9.5156   9.5552   9.5552   9.6149   9.6149  10.7592  10.7599
    10.9740  10.9749

          k = 0.2500-0.2500-0.2500 (  6007 PWs)   bands (ev):

   -35.0833 -35.0833 -35.0592 -35.0592 -35.0540 -35.0540 -35.0468 -35.0468
   -15.8570 -15.8537 -15.8530 -15.8455 -15.8454 -15.8413 -15.7448 -15.7448
   -11.7274 -11.7270 -11.6988 -11.6970 -11.6961 -11.6945 -11.5211 -11.5211
   -11.4703 -11.4689 -11.4670 -11.4648 -11.4550 -11.4539 -11.3092 -11.3092
     3.2276   3.2278   4.4794   4.4815   4.5606   4.5634   4.9372   4.9372
     7.6648   7.6653   8.3743   8.3801   8.3878   8.3931   9.1660   9.1673
     9.5107   9.5123   9.5546   9.5556   9.6134   9.6151  10.7615  10.7615
    10.9763  10.9766

          k =-0.2500 0.2500 0.5000 (  6004 PWs)   bands (ev):

   -35.0735 -35.0735 -35.0648 -35.0648 -35.0570 -35.0570 -35.0480 -35.0480
   -15.8544 -15.8543 -15.8469 -15.8468 -15.8022 -15.8022 -15.7945 -15.7943
   -11.7172 -11.7169 -11.7143 -11.7140 -11.6343 -11.6334 -11.6307 -11.6299
   -11.4612 -11.4602 -11.4580 -11.4568 -11.3677 -11.3670 -11.3633 -11.3628
     3.8420   3.8426   3.8553   3.8560   4.6878   4.6885   4.7007   4.7014
     8.2502   8.2504   8.2558   8.2562   9.1206   9.1208   9.1218   9.1219
     9.4490   9.4493   9.4553   9.4555  10.2619  10.2623  10.2675  10.2678
    11.0720  11.0727

          k =-0.5000-0.2500 0.2500 (  6004 PWs)   bands (ev):

   -35.0733 -35.0733 -35.0667 -35.0667 -35.0540 -35.0540 -35.0493 -35.0493
   -15.8554 -15.8547 -15.8474 -15.8462 -15.8095 -15.8086 -15.7869 -15.7865
   -11.7388 -11.7387 -11.7049 -11.7049 -11.6467 -11.6466 -11.6036 -11.6036
   -11.4603 -11.4601 -11.4444 -11.4441 -11.3779 -11.3775 -11.3682 -11.3680
     3.4102   3.4107   4.4573   4.4578   4.5417   4.5422   4.8922   4.8932
     7.3042   7.3048   8.9720   8.9721   9.0360   9.0361   9.3392   9.3396
     9.3664   9.3668   9.4119   9.4119  10.2079  10.2083  10.3255  10.3262
    10.9516  10.9520

          k = 0.5000-0.2500-0.2500 (  6004 PWs)   bands (ev):

   -35.0733 -35.0733 -35.0667 -35.0667 -35.0540 -35.0540 -35.0493 -35.0493
   -15.8554 -15.8547 -15.8474 -15.8462 -15.8094 -15.8087 -15.7869 -15.7865
   -11.7390 -11.7385 -11.7050 -11.7048 -11.6467 -11.6466 -11.6036 -11.6036
   -11.4603 -11.4601 -11.4443 -11.4441 -11.3777 -11.3777 -11.3681 -11.3681
     3.4103   3.4103   4.4586   4.4590   4.5401   4.5417   4.8926   4.8926
     7.3046   7.3046   8.9714   8.9725   9.0354   9.0365   9.3396   9.3405
     9.3651   9.3668   9.4118   9.4118  10.2078  10.2078  10.3260  10.3260
    10.9521  10.9521

          k =-0.5000 0.2500 0.5000 (  6000 PWs)   bands (ev):

   -35.0697 -35.0697 -35.0612 -35.0612 -35.0607 -35.0607 -35.0515 -35.0515
   -15.8374 -15.8372 -15.8315 -15.8313 -15.8214 -15.8213 -15.8151 -15.8150
   -11.7144 -11.7139 -11.7119 -11.7111 -11.6850 -11.6840 -11.6816 -11.6810
   -11.3924 -11.3916 -11.3906 -11.3872 -11.3843 -11.3803 -11.3801 -11.3786
     3.8588   3.8595   3.8709   3.8717   4.6063   4.6071   4.6188   4.6196
     8.3017   8.3023   8.3037   8.3042   9.4466   9.4473   9.4483   9.4489
     9.9256   9.9263   9.9265   9.9272  10.1266  10.1272  10.1314  10.1320
    10.8733  10.8750

     the Fermi energy is     9.3265 ev

!    total energy              =   -2243.37415576 Ry
     Harris-Foulkes estimate   =   -2243.37415628 Ry
     estimated scf accuracy    <       0.00000042 Ry

     total all-electron energy =    -90247.717550 Ry

     The total energy is the sum of the following terms:

     one-electron contribution =     -58.05308978 Ry
     hartree contribution      =      46.45968097 Ry
     xc contribution           =    -254.09029231 Ry
     ewald contribution        =    -229.62514234 Ry
     one-center paw contrib.   =   -1748.06137748 Ry
     smearing contrib. (-TS)   =      -0.00393481 Ry

     convergence has been achieved in   4 iterations

     Forces acting on atoms (cartesian axes, Ry/au):

     atom    1 type  1   force =     0.02839891    0.00093488    0.00093488
     atom    2 type  1   force =     0.02953143    0.00072866    0.00072866
     atom    3 type  1   force =    -0.02920903    0.00027739    0.00016426
     atom    4 type  1   force =    -0.02920903    0.00016426    0.00027739
     atom    5 type  2   force =     0.00021120   -0.00225720   -0.00225720
     atom    6 type  2   force =     0.00009020   -0.00004476    0.00012351
     atom    7 type  2   force =     0.00009612    0.00007326    0.00007326
     atom    8 type  2   force =     0.00009020    0.00012351   -0.00004476

     Total force =     0.058295     Total SCF correction =     0.002211


     Computing stress (Cartesian axis) and pressure

     Message from routine stres:
     noncollinear stress + GGA not implemented

     number of scf cycles    =   2
     number of bfgs steps    =   1

     enthalpy old            =   -2243.3699751896 Ry
     enthalpy new            =   -2243.3741557597 Ry

     CASE: enthalpy_new < enthalpy_old


     WARNING: bfgs curvature condition failed, Theta= 0.919
     new trust radius        =       0.0373860048 bohr
     new conv_thr            =       0.0000002953 Ry

     new unit-cell volume =   1006.37882 a.u.^3 (   149.12995 Ang^3 )
     density =      7.04871 g/cm^3

CELL_PARAMETERS (angstrom)
   5.303000000   0.000000000   0.000000000
   0.000000000   5.303000000   0.000000000
   0.000000000   0.000000000   5.303000000

ATOMIC_POSITIONS (crystal)
Gd       0.006868793   0.000208326   0.000208326
Gd       0.007118131   0.500170509   0.500170509
Gd       0.492977310   0.000060685   0.500048019
Gd       0.492977310   0.500048019   0.000060685
H        0.250037342   0.753382358   0.753382358
H        0.250006657   0.750085143   0.250030246
H        0.250007800   0.250014715   0.250014715
H        0.250006657   0.250030246   0.750085143



     Writing output data file 2303.save
     NEW-OLD atomic charge density approx. for the potential

     Check: negative/imaginary core charge=   -0.000002    0.000000

     total cpu time spent up to now is       87.1 secs

     per-process dynamical memory:   118.6 Mb

     Self-consistent Calculation

     iteration #  1     ecut=    50.00 Ry     beta=0.70
     Davidson diagonalization with overlap
     ethr =  1.00E-06,  avg # of iterations =  5.3

     total cpu time spent up to now is       98.0 secs

     total energy              =   -2243.37773227 Ry
     Harris-Foulkes estimate   =   -2243.38323791 Ry
     estimated scf accuracy    <       0.00055425 Ry

     iteration #  2     ecut=    50.00 Ry     beta=0.70
     Davidson diagonalization with overlap
     ethr =  1.15E-06,  avg # of iterations =  3.6

     total cpu time spent up to now is      105.1 secs

     total energy              =   -2243.37781723 Ry
     Harris-Foulkes estimate   =   -2243.37817891 Ry
     estimated scf accuracy    <       0.00072465 Ry

     iteration #  3     ecut=    50.00 Ry     beta=0.70
     Davidson diagonalization with overlap
     ethr =  1.15E-06,  avg # of iterations =  2.1

     total cpu time spent up to now is      109.9 secs

     total energy              =   -2243.37794257 Ry
     Harris-Foulkes estimate   =   -2243.37796063 Ry
     estimated scf accuracy    <       0.00000293 Ry

     iteration #  4     ecut=    50.00 Ry     beta=0.70
     Davidson diagonalization with overlap
     ethr =  6.09E-09,  avg # of iterations =  4.2

     total cpu time spent up to now is      117.5 secs

     total energy              =   -2243.37794408 Ry
     Harris-Foulkes estimate   =   -2243.37794512 Ry
     estimated scf accuracy    <       0.00000165 Ry

     iteration #  5     ecut=    50.00 Ry     beta=0.70
     Davidson diagonalization with overlap
     ethr =  3.43E-09,  avg # of iterations =  3.1

     total cpu time spent up to now is      122.5 secs

     End of self-consistent calculation

          k = 0.0000 0.0000 0.0000 (  6031 PWs)   bands (ev):

   -35.1041 -35.1041 -35.0532 -35.0532 -35.0469 -35.0469 -35.0392 -35.0392
   -15.8819 -15.8819 -15.8768 -15.8768 -15.8694 -15.8694 -15.6646 -15.6646
   -11.7767 -11.7767 -11.7766 -11.7766 -11.7455 -11.7455 -11.5154 -11.5154
   -11.4796 -11.4796 -11.4793 -11.4793 -11.2921 -11.2921 -11.2492 -11.2492
     2.3503   2.3503   4.6347   4.6347   4.6357   4.6357   4.9029   4.9029
     7.4303   7.4303   7.4319   7.4319   7.4320   7.4320   8.9780   8.9780
    10.0027  10.0027  10.0033  10.0033  10.4854  10.4854  10.4942  10.4942
    10.6629  10.6629

          k = 0.0000 0.0000 0.2500 (  6023 PWs)   bands (ev):

   -35.0961 -35.0961 -35.0572 -35.0572 -35.0498 -35.0498 -35.0403 -35.0403
   -15.8806 -15.8796 -15.8721 -15.8708 -15.8454 -15.8450 -15.6962 -15.6961
   -11.7578 -11.7576 -11.7233 -11.7229 -11.7061 -11.7057 -11.5476 -11.5473
   -11.5131 -11.5130 -11.4466 -11.4465 -11.3637 -11.3636 -11.2876 -11.2876
     2.7280   2.7282   4.4009   4.4010   4.7404   4.7413   4.9405   4.9412
     7.5950   7.5951   7.8434   7.8435   7.8448   7.8452   8.6521   8.6521
     9.7034   9.7035   9.8502   9.8506   9.9716   9.9717  10.7504  10.7505
    10.8930  10.8940

          k = 0.0000 0.0000-0.5000 (  5942 PWs)   bands (ev):

   -35.0809 -35.0809 -35.0710 -35.0710 -35.0507 -35.0507 -35.0408 -35.0408
   -15.8792 -15.8792 -15.8706 -15.8706 -15.7760 -15.7760 -15.7671 -15.7671
   -11.7090 -11.7090 -11.7023 -11.7023 -11.5880 -11.5880 -11.5824 -11.5824
   -11.5307 -11.5307 -11.5258 -11.5258 -11.3728 -11.3728 -11.3641 -11.3641
     3.6197   3.6197   3.6331   3.6331   4.9064   4.9064   4.9197   4.9197
     8.0180   8.0180   8.0284   8.0284   8.4699   8.4699   8.4708   8.4708
     9.4160   9.4160   9.4183   9.4183  10.6749  10.6749  10.6790  10.6790
    11.2203  11.2224

          k = 0.0000 0.2500 0.2500 (  6016 PWs)   bands (ev):

   -35.0894 -35.0894 -35.0574 -35.0574 -35.0539 -35.0539 -35.0428 -35.0428
   -15.8725 -15.8720 -15.8552 -15.8534 -15.8462 -15.8449 -15.7235 -15.7235
   -11.7273 -11.7267 -11.7153 -11.7148 -11.6901 -11.6897 -11.5489 -11.5489
   -11.4797 -11.4794 -11.4626 -11.4618 -11.4355 -11.4351 -11.3035 -11.3035
     3.0453   3.0454   4.4591   4.4595   4.5419   4.5434   4.8731   4.8731
     8.0047   8.0054   8.0058   8.0060   8.2126   8.2128   8.5444   8.5446
     9.6262   9.6265   9.6594   9.6601   9.6878   9.6884  10.7418  10.7418
    11.0214  11.0214

          k = 0.0000 0.2500-0.5000 (  6018 PWs)   bands (ev):

   -35.0770 -35.0770 -35.0671 -35.0671 -35.0546 -35.0546 -35.0446 -35.0446
   -15.8656 -15.8655 -15.8570 -15.8569 -15.7924 -15.7922 -15.7835 -15.7834
   -11.7087 -11.7077 -11.7054 -11.7042 -11.6017 -11.5981 -11.5980 -11.5945
   -11.5092 -11.5070 -11.5055 -11.5035 -11.3813 -11.3803 -11.3757 -11.3748
     3.7986   3.7992   3.8112   3.8117   4.6980   4.6985   4.7100   4.7105
     8.2575   8.2580   8.2654   8.2660   8.7912   8.7918   8.7926   8.7932
     9.2314   9.2315   9.2324   9.2325  10.2770  10.2771  10.2784  10.2785
    11.5194  11.5197

          k = 0.0000-0.5000-0.5000 (  6024 PWs)   bands (ev):

   -35.0708 -35.0708 -35.0608 -35.0608 -35.0608 -35.0608 -35.0509 -35.0509
   -15.8347 -15.8347 -15.8259 -15.8259 -15.8258 -15.8258 -15.8170 -15.8170
   -11.6697 -11.6697 -11.6682 -11.6682 -11.6669 -11.6669 -11.6656 -11.6656
   -11.4296 -11.4296 -11.4285 -11.4285 -11.4266 -11.4266 -11.4252 -11.4252
     4.2252   4.2252   4.2404   4.2404   4.2406   4.2406   4.2569   4.2569
     8.7669   8.7669   8.7691   8.7691   8.7693   8.7693   8.7716   8.7716
     9.6616   9.6616   9.6633   9.6633   9.6633   9.6633   9.6649   9.6649
    11.4418  11.4432

          k = 0.2500 0.2500 0.2500 (  6007 PWs)   bands (ev):

   -35.0842 -35.0842 -35.0595 -35.0595 -35.0538 -35.0538 -35.0458 -35.0458
   -15.8606 -15.8564 -15.8562 -15.8478 -15.8470 -15.8427 -15.7451 -15.7450
   -11.7396 -11.7390 -11.7035 -11.7022 -11.6978 -11.6967 -11.5317 -11.5316
   -11.4730 -11.4724 -11.4633 -11.4612 -11.4502 -11.4490 -11.3093 -11.3093
     3.1967   3.1969   4.4353   4.4367   4.5184   4.5205   4.8531   4.8531
     7.6744   7.6749   8.3709   8.3757   8.3837   8.3882   9.1708   9.1718
     9.5562   9.5565   9.5789   9.5808   9.6416   9.6434  10.7479  10.7479
    10.9660  10.9662

          k = 0.2500 0.2500-0.5000 (  6004 PWs)   bands (ev):

   -35.0746 -35.0746 -35.0647 -35.0647 -35.0569 -35.0569 -35.0470 -35.0470
   -15.8577 -15.8575 -15.8490 -15.8490 -15.8039 -15.8037 -15.7951 -15.7950
   -11.7247 -11.7240 -11.7213 -11.7205 -11.6401 -11.6386 -11.6360 -11.6345
   -11.4615 -11.4600 -11.4578 -11.4564 -11.3681 -11.3674 -11.3631 -11.3623
     3.8085   3.8092   3.8203   3.8209   4.6274   4.6280   4.6392   4.6398
     8.2577   8.2580   8.2631   8.2633   9.1094   9.1097   9.1110   9.1113
     9.4910   9.4912   9.4970   9.4973  10.2552  10.2556  10.2601  10.2605
    11.0688  11.0697

          k = 0.2500-0.5000-0.5000 (  6000 PWs)   bands (ev):

   -35.0707 -35.0707 -35.0608 -35.0608 -35.0608 -35.0608 -35.0508 -35.0508
   -15.8371 -15.8371 -15.8283 -15.8283 -15.8283 -15.8283 -15.8195 -15.8195
   -11.7067 -11.7067 -11.7056 -11.7054 -11.7014 -11.7014 -11.7003 -11.7002
   -11.3895 -11.3894 -11.3885 -11.3884 -11.3834 -11.3833 -11.3824 -11.3822
     4.1298   4.1299   4.1446   4.1447   4.1449   4.1449   4.1607   4.1608
     8.9551   8.9557   8.9577   8.9580   8.9582   8.9583   8.9601   8.9607
    10.0479  10.0489  10.0518  10.0519  10.0521  10.0522  10.0552  10.0562
    10.8428  10.8449

          k =-0.5000-0.5000-0.5000 (  6008 PWs)   bands (ev):

   -35.0707 -35.0707 -35.0607 -35.0607 -35.0607 -35.0607 -35.0508 -35.0508
   -15.8395 -15.8395 -15.8308 -15.8308 -15.8307 -15.8307 -15.8219 -15.8219
   -11.7352 -11.7352 -11.7341 -11.7341 -11.7292 -11.7292 -11.7281 -11.7281
   -11.3560 -11.3560 -11.3551 -11.3551 -11.3489 -11.3489 -11.3480 -11.3480
     4.0402   4.0402   4.0547   4.0547   4.0549   4.0549   4.0706   4.0706
     9.1713   9.1713   9.1739   9.1739   9.1742   9.1742   9.1768   9.1768
    10.4275  10.4275  10.4290  10.4290  10.4294  10.4294  10.4309  10.4309
    10.6221  10.6225

          k = 0.2500 0.0000 0.0000 (  6023 PWs)   bands (ev):

   -35.0966 -35.0966 -35.0581 -35.0581 -35.0468 -35.0468 -35.0419 -35.0419
   -15.8776 -15.8776 -15.8761 -15.8761 -15.8448 -15.8448 -15.6942 -15.6942
   -11.7576 -11.7575 -11.7574 -11.7574 -11.6844 -11.6843 -11.5064 -11.5063
   -11.5059 -11.5059 -11.4847 -11.4847 -11.3250 -11.3248 -11.3236 -11.3236
     2.6363   2.6365   4.6951   4.6952   4.6963   4.6964   4.9829   4.9829
     6.9643   6.9645   7.8366   7.8367   7.8370   7.8371   9.3199   9.3200
     9.7674   9.7680   9.7998   9.7999   9.8001   9.8002  10.7534  10.7536
    10.9014  10.9029

          k =-0.5000 0.0000 0.0000 (  5942 PWs)   bands (ev):

   -35.0833 -35.0833 -35.0698 -35.0698 -35.0468 -35.0468 -35.0435 -35.0435
   -15.8763 -15.8763 -15.8755 -15.8755 -15.7930 -15.7930 -15.7479 -15.7479
   -11.7332 -11.7332 -11.7330 -11.7330 -11.5694 -11.5694 -11.5377 -11.5377
   -11.5370 -11.5370 -11.4548 -11.4548 -11.4286 -11.4286 -11.3811 -11.3811
     2.9908   2.9908   4.7581   4.7581   4.7596   4.7596   5.0708   5.0708
     6.4015   6.4015   8.4309   8.4309   8.4316   8.4316   9.2551   9.2551
     9.6101   9.6101   9.6101   9.6101  10.4523  10.4523  10.5677  10.5677
    11.3596  11.4435

          k = 0.0000 0.2500-0.2500 (  6016 PWs)   bands (ev):

   -35.0894 -35.0894 -35.0574 -35.0574 -35.0539 -35.0539 -35.0428 -35.0428
   -15.8725 -15.8720 -15.8552 -15.8535 -15.8461 -15.8448 -15.7235 -15.7234
   -11.7272 -11.7269 -11.7154 -11.7147 -11.6900 -11.6897 -11.5492 -11.5487
   -11.4796 -11.4794 -11.4626 -11.4618 -11.4356 -11.4350 -11.3035 -11.3035
     3.0451   3.0457   4.4579   4.4583   4.5435   4.5439   4.8726   4.8739
     8.0016   8.0018   8.0091   8.0094   8.2125   8.2127   8.5444   8.5445
     9.6264   9.6265   9.6597   9.6599   9.6878   9.6880  10.7419  10.7419
    11.0206  11.0218

          k = 0.2500 0.0000-0.2500 (  6016 PWs)   bands (ev):

   -35.0897 -35.0897 -35.0589 -35.0589 -35.0513 -35.0513 -35.0434 -35.0434
   -15.8741 -15.8736 -15.8553 -15.8528 -15.8466 -15.8447 -15.7217 -15.7217
   -11.7525 -11.7522 -11.7008 -11.7004 -11.6861 -11.6859 -11.5153 -11.5151
   -11.5090 -11.5085 -11.4643 -11.4639 -11.4235 -11.4234 -11.3114 -11.3113
     2.9523   2.9526   4.4209   4.4212   4.7800   4.7808   4.9886   4.9893
     7.2972   7.2973   7.9458   7.9461   8.2305   8.2309   9.1028   9.1032
     9.6090   9.6115   9.6148   9.6153   9.6797   9.6813  10.7320  10.7323
    11.0374  11.0381

          k =-0.2500 0.0000-0.2500 (  6016 PWs)   bands (ev):

   -35.0898 -35.0898 -35.0589 -35.0589 -35.0513 -35.0513 -35.0435 -35.0435
   -15.8741 -15.8734 -15.8554 -15.8529 -15.8466 -15.8448 -15.7217 -15.7216
   -11.7525 -11.7522 -11.7009 -11.7007 -11.6864 -11.6863 -11.5153 -11.5148
   -11.5089 -11.5084 -11.4641 -11.4640 -11.4233 -11.4232 -11.3114 -11.3113
     2.9509   2.9511   4.4197   4.4198   4.7797   4.7805   4.9884   4.9891
     7.2987   7.2988   7.9445   7.9447   8.2345   8.2349   9.1108   9.1113
     9.6129   9.6134   9.6165   9.6192   9.6814   9.6833  10.7263  10.7265
    11.0347  11.0353

          k = 0.2500 0.0000 0.5000 (  6018 PWs)   bands (ev):

   -35.0773 -35.0773 -35.0674 -35.0674 -35.0543 -35.0543 -35.0443 -35.0443
   -15.8666 -15.8665 -15.8580 -15.8579 -15.7911 -15.7910 -15.7823 -15.7822
   -11.7121 -11.7119 -11.7088 -11.7085 -11.5935 -11.5932 -11.5888 -11.5885
   -11.5115 -11.5113 -11.5086 -11.5084 -11.3810 -11.3809 -11.3753 -11.3752
     3.7017   3.7019   3.7139   3.7141   4.9209   4.9211   4.9340   4.9342
     7.8482   7.8486   7.8540   7.8544   8.8224   8.8228   8.8262   8.8267
     9.4936   9.4938   9.4958   9.4960  10.1616  10.1619  10.1691  10.1693
    11.7283  11.7321

          k =-0.5000-0.2500 0.0000 (  6018 PWs)   bands (ev):

   -35.0787 -35.0787 -35.0671 -35.0671 -35.0511 -35.0511 -35.0464 -35.0464
   -15.8679 -15.8672 -15.8569 -15.8558 -15.8067 -15.8062 -15.7673 -15.7672
   -11.7469 -11.7467 -11.6937 -11.6934 -11.6114 -11.6112 -11.5421 -11.5420
   -11.5167 -11.5162 -11.4828 -11.4826 -11.3985 -11.3983 -11.3875 -11.3874
     3.2176   3.2178   4.4399   4.4399   4.8198   4.8205   5.0397   5.0403
     6.7734   6.7735   8.7082   8.7087   8.8108   8.8110   8.8969   8.8974
     9.3731   9.3731   9.6306   9.6308  10.0834  10.0835  10.2780  10.2781
    11.5612  11.5620

          k =-0.5000 0.0000 0.5000 (  6024 PWs)   bands (ev):

   -35.0719 -35.0719 -35.0619 -35.0619 -35.0597 -35.0597 -35.0498 -35.0498
   -15.8432 -15.8432 -15.8356 -15.8356 -15.8156 -15.8156 -15.8080 -15.8080
   -11.6959 -11.6959 -11.6954 -11.6954 -11.6378 -11.6378 -11.6358 -11.6358
   -11.4425 -11.4425 -11.4414 -11.4414 -11.4177 -11.4177 -11.4158 -11.4158
     3.7858   3.7858   3.7966   3.7966   4.9359   4.9359   4.9488   4.9488
     7.7102   7.7102   7.7107   7.7107   9.5025   9.5025   9.5041   9.5041
     9.5785   9.5785   9.5806   9.5806   9.6847   9.6847   9.6880   9.6880
    11.5590  11.5626

          k =-0.2500 0.2500-0.2500 (  6007 PWs)   bands (ev):

   -35.0842 -35.0842 -35.0595 -35.0595 -35.0538 -35.0538 -35.0458 -35.0458
   -15.8605 -15.8564 -15.8562 -15.8478 -15.8470 -15.8427 -15.7452 -15.7451
   -11.7393 -11.7391 -11.7033 -11.7018 -11.6977 -11.6964 -11.5320 -11.5318
   -11.4731 -11.4724 -11.4635 -11.4613 -11.4503 -11.4490 -11.3094 -11.3094
     3.1984   3.1989   4.4357   4.4361   4.5212   4.5216   4.8520   4.8532
     7.6735   7.6738   8.3694   8.3696   8.3839   8.3840   9.1667   9.1671
     9.5526   9.5528   9.5792   9.5794   9.6421   9.6421  10.7494  10.7501
    10.9677  10.9685

          k = 0.2500-0.2500-0.2500 (  6007 PWs)   bands (ev):

   -35.0842 -35.0842 -35.0595 -35.0595 -35.0538 -35.0538 -35.0458 -35.0458
   -15.8605 -15.8563 -15.8562 -15.8477 -15.8470 -15.8427 -15.7452 -15.7452
   -11.7393 -11.7390 -11.7029 -11.7014 -11.6977 -11.6964 -11.5322 -11.5321
   -11.4733 -11.4724 -11.4635 -11.4614 -11.4505 -11.4491 -11.3094 -11.3094
     3.2002   3.2004   4.4370   4.4389   4.5203   4.5227   4.8518   4.8518
     7.6726   7.6730   8.3649   8.3698   8.3781   8.3827   9.1618   9.1628
     9.5477   9.5492   9.5792   9.5798   9.6411   9.6424  10.7518  10.7518
    10.9700  10.9703

          k =-0.2500 0.2500 0.5000 (  6004 PWs)   bands (ev):

   -35.0746 -35.0746 -35.0647 -35.0647 -35.0569 -35.0569 -35.0470 -35.0470
   -15.8576 -15.8575 -15.8490 -15.8489 -15.8039 -15.8038 -15.7952 -15.7950
   -11.7243 -11.7237 -11.7210 -11.7202 -11.6403 -11.6387 -11.6361 -11.6348
   -11.4616 -11.4601 -11.4580 -11.4564 -11.3682 -11.3673 -11.3632 -11.3625
     3.8108   3.8114   3.8226   3.8233   4.6265   4.6271   4.6382   4.6388
     8.2551   8.2553   8.2603   8.2606   9.1083   9.1086   9.1096   9.1099
     9.4870   9.4873   9.4932   9.4934  10.2571  10.2575  10.2626  10.2629
    11.0687  11.0693

          k =-0.5000-0.2500 0.2500 (  6004 PWs)   bands (ev):

   -35.0755 -35.0755 -35.0655 -35.0655 -35.0538 -35.0538 -35.0483 -35.0483
   -15.8584 -15.8571 -15.8497 -15.8478 -15.8160 -15.8151 -15.7833 -15.7830
   -11.7506 -11.7505 -11.7052 -11.7050 -11.6554 -11.6553 -11.6056 -11.6055
   -11.4662 -11.4661 -11.4401 -11.4398 -11.3813 -11.3809 -11.3649 -11.3647
     3.3775   3.3779   4.4153   4.4157   4.5009   4.5013   4.8104   4.8113
     7.3163   7.3168   8.9818   8.9820   9.0451   9.0453   9.3326   9.3329
     9.3631   9.3634   9.4494   9.4494  10.1500  10.1503  10.3882  10.3888
    10.9290  10.9292

          k = 0.5000-0.2500-0.2500 (  6004 PWs)   bands (ev):

   -35.0755 -35.0755 -35.0655 -35.0655 -35.0538 -35.0538 -35.0483 -35.0483
   -15.8584 -15.8571 -15.8497 -15.8478 -15.8160 -15.8151 -15.7832 -15.7830
   -11.7508 -11.7503 -11.7052 -11.7050 -11.6554 -11.6554 -11.6056 -11.6055
   -11.4662 -11.4660 -11.4401 -11.4398 -11.3812 -11.3810 -11.3648 -11.3648
     3.3776   3.3776   4.4164   4.4167   4.4995   4.5009   4.8107   4.8107
     7.3167   7.3167   8.9814   8.9823   9.0446   9.0456   9.3327   9.3335
     9.3621   9.3635   9.4494   9.4494  10.1499  10.1499  10.3885  10.3885
    10.9294  10.9294

          k =-0.5000 0.2500 0.5000 (  6000 PWs)   bands (ev):

   -35.0713 -35.0713 -35.0613 -35.0613 -35.0602 -35.0602 -35.0502 -35.0502
   -15.8424 -15.8422 -15.8348 -15.8347 -15.8217 -15.8216 -15.8141 -15.8140
   -11.7233 -11.7224 -11.7204 -11.7191 -11.6876 -11.6860 -11.6839 -11.6828
   -11.3970 -11.3954 -11.3947 -11.3912 -11.3820 -11.3780 -11.3776 -11.3755
     3.8265   3.8272   3.8371   3.8379   4.5483   4.5490   4.5598   4.5605
     8.3129   8.3134   8.3145   8.3150   9.4685   9.4692   9.4694   9.4700
     9.9017   9.9025   9.9027   9.9035  10.1303  10.1310  10.1353  10.1359
    10.8507  10.8530

     the Fermi energy is     9.3499 ev

!    total energy              =   -2243.37794428 Ry
     Harris-Foulkes estimate   =   -2243.37794453 Ry
     estimated scf accuracy    <       0.00000022 Ry

     total all-electron energy =    -90247.721338 Ry

     The total energy is the sum of the following terms:

     one-electron contribution =     -58.75541768 Ry
     hartree contribution      =      46.80479735 Ry
     xc contribution           =    -254.10636479 Ry
     ewald contribution        =    -229.25589029 Ry
     one-center paw contrib.   =   -1748.06138952 Ry
     smearing contrib. (-TS)   =      -0.00367935 Ry

     convergence has been achieved in   5 iterations

     Forces acting on atoms (cartesian axes, Ry/au):

     atom    1 type  1   force =     0.02235940    0.00067667    0.00067667
     atom    2 type  1   force =     0.02343394    0.00075803    0.00075803
     atom    3 type  1   force =    -0.02314315    0.00017016    0.00028383
     atom    4 type  1   force =    -0.02314315    0.00028383    0.00017016
     atom    5 type  2   force =     0.00018559   -0.00213534   -0.00213534
     atom    6 type  2   force =     0.00010010   -0.00003010    0.00013713
     atom    7 type  2   force =     0.00010717    0.00013963    0.00013963
     atom    8 type  2   force =     0.00010010    0.00013713   -0.00003010

     Total force =     0.046172     Total SCF correction =     0.001087


     Computing stress (Cartesian axis) and pressure

     Message from routine stres:
     noncollinear stress + GGA not implemented

     number of scf cycles    =   3
     number of bfgs steps    =   2

     enthalpy old            =   -2243.3741557597 Ry
     enthalpy new            =   -2243.3779442779 Ry

     CASE: enthalpy_new < enthalpy_old

     new trust radius        =       0.0560790071 bohr
     new conv_thr            =       0.0000002343 Ry

     new unit-cell volume =   1006.37882 a.u.^3 (   149.12995 Ang^3 )
     density =      7.04871 g/cm^3

CELL_PARAMETERS (angstrom)
   5.303000000   0.000000000   0.000000000
   0.000000000   5.303000000   0.000000000
   0.000000000   0.000000000   5.303000000

ATOMIC_POSITIONS (crystal)
Gd       0.012215704   0.000370380   0.000370380
Gd       0.012708927   0.500341563   0.500341563
Gd       0.487456896   0.000102821   0.500109363
Gd       0.487456896   0.500109363   0.000102821
H        0.250078611   0.752894246   0.752894246
H        0.250026766   0.750077059   0.250061077
H        0.250029434   0.250043491   0.250043491
H        0.250026766   0.250061077   0.750077059



     Writing output data file 2303.save
     NEW-OLD atomic charge density approx. for the potential

     Check: negative/imaginary core charge=   -0.000002    0.000000

     total cpu time spent up to now is      127.2 secs

     per-process dynamical memory:   118.6 Mb

     Self-consistent Calculation

     iteration #  1     ecut=    50.00 Ry     beta=0.70
     Davidson diagonalization with overlap
     c_bands:  2 eigenvalues not converged
     ethr =  1.00E-06,  avg # of iterations =  7.4

     total cpu time spent up to now is      139.7 secs

     total energy              =   -2243.38147100 Ry
     Harris-Foulkes estimate   =   -2243.39379328 Ry
     estimated scf accuracy    <       0.00131549 Ry

     iteration #  2     ecut=    50.00 Ry     beta=0.70
     Davidson diagonalization with overlap
     ethr =  2.74E-06,  avg # of iterations =  3.1

     total cpu time spent up to now is      146.9 secs

     total energy              =   -2243.38168427 Ry
     Harris-Foulkes estimate   =   -2243.38255464 Ry
     estimated scf accuracy    <       0.00176466 Ry

     iteration #  3     ecut=    50.00 Ry     beta=0.70
     Davidson diagonalization with overlap
     ethr =  2.74E-06,  avg # of iterations =  2.1

     total cpu time spent up to now is      152.2 secs

     total energy              =   -2243.38198741 Ry
     Harris-Foulkes estimate   =   -2243.38202725 Ry
     estimated scf accuracy    <       0.00000480 Ry

     iteration #  4     ecut=    50.00 Ry     beta=0.70
     Davidson diagonalization with overlap
     ethr =  9.99E-09,  avg # of iterations =  4.1

     total cpu time spent up to now is      159.4 secs

     total energy              =   -2243.38199141 Ry
     Harris-Foulkes estimate   =   -2243.38199206 Ry
     estimated scf accuracy    <       0.00000059 Ry

     iteration #  5     ecut=    50.00 Ry     beta=0.70
     Davidson diagonalization with overlap
     ethr =  1.22E-09,  avg # of iterations =  2.8

     total cpu time spent up to now is      164.9 secs

     End of self-consistent calculation

          k = 0.0000 0.0000 0.0000 (  6031 PWs)   bands (ev):

   -35.1042 -35.1042 -35.0503 -35.0503 -35.0457 -35.0457 -35.0400 -35.0400
   -15.8842 -15.8842 -15.8800 -15.8800 -15.8750 -15.8750 -15.6638 -15.6638
   -11.7881 -11.7881 -11.7879 -11.7879 -11.7528 -11.7528 -11.5235 -11.5235
   -11.4798 -11.4798 -11.4795 -11.4795 -11.2926 -11.2926 -11.2479 -11.2479
     2.3202   2.3202   4.5812   4.5812   4.5820   4.5820   4.7482   4.7482
     7.4186   7.4186   7.4265   7.4265   7.4267   7.4267   8.9806   8.9806
    10.0448  10.0448  10.0452  10.0452  10.4767  10.4767  10.4790  10.4790
    10.6521  10.6521

          k = 0.0000 0.0000 0.2500 (  6023 PWs)   bands (ev):

   -35.0959 -35.0959 -35.0555 -35.0555 -35.0479 -35.0479 -35.0409 -35.0409
   -15.8832 -15.8824 -15.8769 -15.8759 -15.8482 -15.8480 -15.6961 -15.6961
   -11.7746 -11.7743 -11.7316 -11.7314 -11.7115 -11.7111 -11.5564 -11.5562
   -11.5150 -11.5148 -11.4442 -11.4441 -11.3640 -11.3639 -11.2859 -11.2859
     2.6973   2.6974   4.3549   4.3550   4.6733   4.6740   4.7977   4.7983
     7.5729   7.5730   7.8326   7.8327   7.8399   7.8401   8.6458   8.6459
     9.7422   9.7423   9.8847   9.8850  10.0222  10.0223  10.7300  10.7301
    10.8751  10.8757

          k = 0.0000 0.0000-0.5000 (  5942 PWs)   bands (ev):

   -35.0790 -35.0790 -35.0716 -35.0716 -35.0483 -35.0483 -35.0411 -35.0411
   -15.8820 -15.8820 -15.8757 -15.8757 -15.7761 -15.7761 -15.7697 -15.7697
   -11.7227 -11.7227 -11.7182 -11.7182 -11.5953 -11.5953 -11.5914 -11.5914
   -11.5281 -11.5281 -11.5249 -11.5249 -11.3691 -11.3691 -11.3629 -11.3629
     3.5863   3.5863   3.5973   3.5973   4.8005   4.8005   4.8125   4.8125
     7.9938   7.9938   8.0026   8.0026   8.4657   8.4657   8.4662   8.4662
     9.4599   9.4599   9.4624   9.4624  10.7081  10.7081  10.7109  10.7109
    11.1166  11.1170

          k = 0.0000 0.2500 0.2500 (  6016 PWs)   bands (ev):

   -35.0888 -35.0888 -35.0553 -35.0553 -35.0527 -35.0527 -35.0433 -35.0433
   -15.8757 -15.8754 -15.8588 -15.8582 -15.8484 -15.8481 -15.7240 -15.7240
   -11.7467 -11.7463 -11.7245 -11.7242 -11.6926 -11.6921 -11.5608 -11.5607
   -11.4864 -11.4859 -11.4541 -11.4535 -11.4327 -11.4324 -11.3019 -11.3019
     3.0110   3.0111   4.3969   4.3973   4.4835   4.4846   4.7419   4.7419
     7.9851   7.9855   7.9857   7.9857   8.2086   8.2091   8.5393   8.5397
     9.6794   9.6795   9.7078   9.7084   9.7440   9.7446  10.7418  10.7418
    10.9877  10.9877

          k = 0.0000 0.2500-0.5000 (  6018 PWs)   bands (ev):

   -35.0749 -35.0749 -35.0674 -35.0674 -35.0524 -35.0524 -35.0453 -35.0453
   -15.8680 -15.8679 -15.8617 -15.8616 -15.7930 -15.7929 -15.7866 -15.7865
   -11.7211 -11.7200 -11.7188 -11.7175 -11.6135 -11.6110 -11.6101 -11.6082
   -11.5034 -11.5022 -11.5006 -11.4997 -11.3781 -11.3773 -11.3740 -11.3733
     3.7543   3.7548   3.7647   3.7652   4.6013   4.6018   4.6120   4.6125
     8.2433   8.2438   8.2501   8.2506   8.7713   8.7718   8.7723   8.7730
     9.3046   9.3047   9.3052   9.3053  10.3164  10.3167  10.3169  10.3171
    11.4019  11.4024

          k = 0.0000-0.5000-0.5000 (  6024 PWs)   bands (ev):

   -35.0675 -35.0675 -35.0597 -35.0597 -35.0597 -35.0597 -35.0530 -35.0530
   -15.8353 -15.8353 -15.8285 -15.8285 -15.8284 -15.8284 -15.8225 -15.8225
   -11.6814 -11.6814 -11.6801 -11.6801 -11.6784 -11.6784 -11.6774 -11.6774
   -11.4265 -11.4265 -11.4254 -11.4254 -11.4239 -11.4239 -11.4229 -11.4229
     4.1557   4.1557   4.1682   4.1682   4.1684   4.1684   4.1827   4.1827
     8.7769   8.7769   8.7792   8.7792   8.7795   8.7795   8.7821   8.7821
     9.6999   9.6999   9.7037   9.7037   9.7037   9.7037   9.7073   9.7073
    11.3492  11.3504

          k = 0.2500 0.2500 0.2500 (  6007 PWs)   bands (ev):

   -35.0838 -35.0838 -35.0568 -35.0568 -35.0527 -35.0527 -35.0467 -35.0467
   -15.8633 -15.8597 -15.8592 -15.8539 -15.8491 -15.8474 -15.7447 -15.7447
   -11.7586 -11.7581 -11.7121 -11.7118 -11.6994 -11.6992 -11.5491 -11.5491
   -11.4801 -11.4800 -11.4531 -11.4522 -11.4424 -11.4417 -11.3085 -11.3085
     3.1568   3.1569   4.3740   4.3748   4.4600   4.4614   4.7238   4.7238
     7.6847   7.6850   8.3558   8.3591   8.3688   8.3718   9.1569   9.1575
     9.6104   9.6129   9.6144   9.6184   9.6812   9.6825  10.7310  10.7310
    10.9624  10.9626

          k = 0.2500 0.2500-0.5000 (  6004 PWs)   bands (ev):

   -35.0725 -35.0725 -35.0650 -35.0650 -35.0548 -35.0548 -35.0477 -35.0477
   -15.8605 -15.8604 -15.8541 -15.8541 -15.8041 -15.8040 -15.7978 -15.7977
   -11.7360 -11.7353 -11.7336 -11.7327 -11.6484 -11.6469 -11.6455 -11.6440
   -11.4597 -11.4584 -11.4572 -11.4559 -11.3661 -11.3654 -11.3625 -11.3618
     3.7629   3.7635   3.7726   3.7732   4.5354   4.5359   4.5459   4.5465
     8.2635   8.2637   8.2677   8.2679   9.0900   9.0904   9.0915   9.0918
     9.5486   9.5487   9.5541   9.5544  10.2443  10.2446  10.2485  10.2488
    11.0661  11.0669

          k = 0.2500-0.5000-0.5000 (  6000 PWs)   bands (ev):

   -35.0675 -35.0675 -35.0597 -35.0597 -35.0597 -35.0597 -35.0529 -35.0529
   -15.8377 -15.8377 -15.8309 -15.8309 -15.8309 -15.8308 -15.8249 -15.8249
   -11.7157 -11.7157 -11.7147 -11.7147 -11.7116 -11.7116 -11.7107 -11.7107
   -11.3879 -11.3877 -11.3871 -11.3868 -11.3835 -11.3832 -11.3827 -11.3825
     4.0646   4.0647   4.0770   4.0771   4.0772   4.0772   4.0912   4.0913
     8.9743   8.9747   8.9762   8.9763   8.9769   8.9771   8.9787   8.9791
    10.0663  10.0669  10.0697  10.0701  10.0701  10.0704  10.0734  10.0741
    10.8039  10.8058

          k =-0.5000-0.5000-0.5000 (  6008 PWs)   bands (ev):

   -35.0675 -35.0675 -35.0596 -35.0596 -35.0596 -35.0596 -35.0529 -35.0529
   -15.8401 -15.8401 -15.8333 -15.8333 -15.8333 -15.8333 -15.8273 -15.8273
   -11.7429 -11.7429 -11.7420 -11.7420 -11.7385 -11.7385 -11.7376 -11.7376
   -11.3554 -11.3554 -11.3546 -11.3546 -11.3503 -11.3503 -11.3496 -11.3496
     3.9788   3.9788   3.9911   3.9911   3.9912   3.9912   4.0051   4.0051
     9.1972   9.1972   9.1997   9.1997   9.1998   9.1998   9.2014   9.2014
    10.4079  10.4079  10.4092  10.4092  10.4097  10.4097  10.4111  10.4111
    10.6087  10.6092

          k = 0.2500 0.0000 0.0000 (  6023 PWs)   bands (ev):

   -35.0971 -35.0971 -35.0546 -35.0546 -35.0456 -35.0456 -35.0428 -35.0428
   -15.8806 -15.8806 -15.8794 -15.8793 -15.8510 -15.8509 -15.6922 -15.6921
   -11.7704 -11.7700 -11.7700 -11.7698 -11.6941 -11.6940 -11.5052 -11.5050
   -11.5050 -11.5047 -11.4945 -11.4945 -11.3225 -11.3225 -11.3211 -11.3210
     2.5964   2.5966   4.6386   4.6387   4.6396   4.6397   4.8194   4.8194
     6.9745   6.9746   7.8267   7.8268   7.8271   7.8272   9.3262   9.3263
     9.8209   9.8214   9.8480   9.8481   9.8482   9.8483  10.7294  10.7295
    10.8814  10.8824

          k =-0.5000 0.0000 0.0000 (  5942 PWs)   bands (ev):

   -35.0861 -35.0861 -35.0643 -35.0643 -35.0456 -35.0456 -35.0441 -35.0441
   -15.8796 -15.8796 -15.8787 -15.8787 -15.8065 -15.8065 -15.7383 -15.7383
   -11.7481 -11.7481 -11.7477 -11.7477 -11.5926 -11.5926 -11.5343 -11.5343
   -11.5340 -11.5340 -11.4483 -11.4483 -11.4368 -11.4368 -11.3701 -11.3701
     2.9346   2.9346   4.6983   4.6983   4.6994   4.6994   4.8965   4.8965
     6.4394   6.4394   8.4097   8.4097   8.4102   8.4102   9.3365   9.3365
     9.6638   9.6638   9.6639   9.6639  10.4128  10.4128  10.6308  10.6308
    11.2956  11.2956

          k = 0.0000 0.2500-0.2500 (  6016 PWs)   bands (ev):

   -35.0888 -35.0888 -35.0553 -35.0553 -35.0527 -35.0527 -35.0433 -35.0433
   -15.8757 -15.8754 -15.8588 -15.8583 -15.8483 -15.8481 -15.7241 -15.7240
   -11.7466 -11.7465 -11.7245 -11.7242 -11.6926 -11.6921 -11.5610 -11.5606
   -11.4863 -11.4859 -11.4541 -11.4535 -11.4328 -11.4323 -11.3019 -11.3019
     3.0109   3.0113   4.3961   4.3963   4.4847   4.4848   4.7416   4.7426
     7.9823   7.9824   7.9886   7.9887   8.2086   8.2090   8.5393   8.5397
     9.6794   9.6797   9.7079   9.7081   9.7440   9.7443  10.7418  10.7418
    10.9871  10.9880

          k = 0.2500 0.0000-0.2500 (  6016 PWs)   bands (ev):

   -35.0898 -35.0898 -35.0561 -35.0561 -35.0501 -35.0501 -35.0440 -35.0440
   -15.8777 -15.8771 -15.8584 -15.8566 -15.8509 -15.8497 -15.7206 -15.7205
   -11.7708 -11.7705 -11.7050 -11.7044 -11.6961 -11.6959 -11.5240 -11.5238
   -11.5186 -11.5180 -11.4596 -11.4594 -11.4160 -11.4159 -11.3103 -11.3102
     2.9135   2.9137   4.3728   4.3729   4.7105   4.7111   4.8410   4.8415
     7.3064   7.3065   7.9290   7.9292   8.2223   8.2226   9.0979   9.0982
     9.6418   9.6431   9.6673   9.6674   9.7238   9.7248  10.7124  10.7126
    11.0191  11.0196

          k =-0.2500 0.0000-0.2500 (  6016 PWs)   bands (ev):

   -35.0899 -35.0899 -35.0561 -35.0561 -35.0501 -35.0501 -35.0440 -35.0440
   -15.8777 -15.8771 -15.8584 -15.8566 -15.8509 -15.8498 -15.7205 -15.7205
   -11.7709 -11.7706 -11.7048 -11.7045 -11.6963 -11.6962 -11.5240 -11.5237
   -11.5185 -11.5182 -11.4594 -11.4593 -11.4157 -11.4156 -11.3103 -11.3103
     2.9123   2.9125   4.3715   4.3716   4.7102   4.7108   4.8407   4.8413
     7.3077   7.3079   7.9288   7.9290   8.2258   8.2261   9.1046   9.1049
     9.6435   9.6443   9.6706   9.6712   9.7250   9.7262  10.7072  10.7074
    11.0160  11.0164

          k = 0.2500 0.0000 0.5000 (  6018 PWs)   bands (ev):

   -35.0756 -35.0756 -35.0681 -35.0681 -35.0517 -35.0517 -35.0446 -35.0446
   -15.8700 -15.8699 -15.8637 -15.8636 -15.7906 -15.7905 -15.7843 -15.7842
   -11.7255 -11.7254 -11.7230 -11.7228 -11.6025 -11.6023 -11.5991 -11.5989
   -11.5083 -11.5082 -11.5064 -11.5062 -11.3781 -11.3780 -11.3740 -11.3739
     3.6641   3.6642   3.6740   3.6741   4.8141   4.8142   4.8259   4.8261
     7.8488   7.8491   7.8530   7.8533   8.8138   8.8141   8.8169   8.8173
     9.5409   9.5411   9.5437   9.5439  10.1338  10.1340  10.1400  10.1402
    11.7101  11.7119

          k =-0.5000-0.2500 0.0000 (  6018 PWs)   bands (ev):

   -35.0805 -35.0805 -35.0623 -35.0623 -35.0505 -35.0505 -35.0467 -35.0467
   -15.8724 -15.8717 -15.8582 -15.8573 -15.8185 -15.8183 -15.7598 -15.7598
   -11.7670 -11.7667 -11.6961 -11.6956 -11.6293 -11.6291 -11.5468 -11.5467
   -11.5245 -11.5242 -11.4742 -11.4740 -11.3970 -11.3968 -11.3819 -11.3817
     3.1669   3.1671   4.3895   4.3896   4.7479   4.7484   4.8866   4.8871
     6.8042   6.8043   8.7127   8.7131   8.7875   8.7877   8.8980   8.8984
     9.4431   9.4431   9.6815   9.6817   9.9993   9.9994  10.3743  10.3743
    11.4787  11.4793

          k =-0.5000 0.0000 0.5000 (  6024 PWs)   bands (ev):

   -35.0705 -35.0705 -35.0629 -35.0629 -35.0568 -35.0568 -35.0498 -35.0498
   -15.8499 -15.8499 -15.8439 -15.8439 -15.8124 -15.8124 -15.8068 -15.8068
   -11.7131 -11.7131 -11.7122 -11.7122 -11.6407 -11.6407 -11.6388 -11.6388
   -11.4484 -11.4484 -11.4477 -11.4477 -11.4102 -11.4102 -11.4086 -11.4086
     3.7434   3.7434   3.7520   3.7520   4.8282   4.8282   4.8399   4.8399
     7.7283   7.7283   7.7297   7.7297   9.4762   9.4762   9.4791   9.4791
     9.6274   9.6274   9.6302   9.6302   9.6737   9.6737   9.6752   9.6752
    11.5284  11.5316

          k =-0.2500 0.2500-0.2500 (  6007 PWs)   bands (ev):

   -35.0838 -35.0838 -35.0568 -35.0568 -35.0527 -35.0527 -35.0467 -35.0467
   -15.8632 -15.8597 -15.8592 -15.8539 -15.8491 -15.8473 -15.7448 -15.7447
   -11.7583 -11.7582 -11.7119 -11.7114 -11.6995 -11.6991 -11.5493 -11.5491
   -11.4802 -11.4799 -11.4533 -11.4524 -11.4426 -11.4418 -11.3085 -11.3085
     3.1582   3.1586   4.3743   4.3745   4.4623   4.4624   4.7229   4.7238
     7.6839   7.6842   8.3538   8.3540   8.3679   8.3681   9.1538   9.1541
     9.6085   9.6090   9.6149   9.6155   9.6817   9.6818  10.7324  10.7330
    10.9643  10.9649

          k = 0.2500-0.2500-0.2500 (  6007 PWs)   bands (ev):

   -35.0838 -35.0838 -35.0568 -35.0568 -35.0527 -35.0527 -35.0467 -35.0467
   -15.8632 -15.8597 -15.8591 -15.8538 -15.8491 -15.8474 -15.7449 -15.7448
   -11.7583 -11.7579 -11.7116 -11.7111 -11.6997 -11.6990 -11.5494 -11.5492
   -11.4803 -11.4797 -11.4535 -11.4526 -11.4427 -11.4420 -11.3085 -11.3085
     3.1597   3.1599   4.3753   4.3768   4.4617   4.4635   4.7226   4.7226
     7.6833   7.6836   8.3497   8.3533   8.3630   8.3663   9.1502   9.1507
     9.6030   9.6049   9.6155   9.6164   9.6814   9.6821  10.7346  10.7347
    10.9666  10.9668

          k =-0.2500 0.2500 0.5000 (  6004 PWs)   bands (ev):

   -35.0725 -35.0725 -35.0650 -35.0650 -35.0548 -35.0548 -35.0477 -35.0477
   -15.8604 -15.8604 -15.8541 -15.8540 -15.8041 -15.8041 -15.7979 -15.7977
[...]

     total energy              =   -2243.38430078 Ry
     Harris-Foulkes estimate   =   -2243.38430199 Ry
     estimated scf accuracy    <       0.00000243 Ry

     iteration #  7     ecut=    50.00 Ry     beta=0.70
     Davidson diagonalization with overlap
     ethr =  5.07E-09,  avg # of iterations =  3.6

     total cpu time spent up to now is      328.4 secs

     total energy              =   -2243.38430147 Ry
     Harris-Foulkes estimate   =   -2243.38430191 Ry
     estimated scf accuracy    <       0.00000131 Ry

     iteration #  8     ecut=    50.00 Ry     beta=0.70
     Davidson diagonalization with overlap
     ethr =  2.72E-09,  avg # of iterations =  3.0

     total cpu time spent up to now is      333.4 secs

     total energy              =   -2243.38430169 Ry
     Harris-Foulkes estimate   =   -2243.38430169 Ry
     estimated scf accuracy    <       0.00000001 Ry

     iteration #  9     ecut=    50.00 Ry     beta=0.70
     Davidson diagonalization with overlap
     ethr =  2.34E-11,  avg # of iterations =  4.3

     total cpu time spent up to now is      340.8 secs

     End of self-consistent calculation

          k = 0.0000 0.0000 0.0000 (  6031 PWs)   bands (ev):

   -35.1045 -35.1045 -35.0441 -35.0441 -35.0430 -35.0430 -35.0387 -35.0387
   -15.8883 -15.8883 -15.8854 -15.8854 -15.8849 -15.8849 -15.6603 -15.6603
   -11.8085 -11.8085 -11.8083 -11.8083 -11.7670 -11.7670 -11.5393 -11.5393
   -11.4786 -11.4786 -11.4782 -11.4782 -11.2897 -11.2897 -11.2445 -11.2445
     2.2760   2.2760   4.5077   4.5077   4.5098   4.5098   4.5105   4.5105
     7.3987   7.3987   7.4180   7.4180   7.4181   7.4181   8.9717   8.9717
    10.1077  10.1077  10.1079  10.1079  10.4517  10.4517  10.4736  10.4736
    10.6402  10.6402

          k = 0.0000 0.0000 0.2500 (  6023 PWs)   bands (ev):

   -35.0956 -35.0956 -35.0524 -35.0524 -35.0430 -35.0430 -35.0393 -35.0393
   -15.8879 -15.8875 -15.8857 -15.8855 -15.8524 -15.8522 -15.6940 -15.6939
   -11.8046 -11.8044 -11.7477 -11.7477 -11.7212 -11.7208 -11.5734 -11.5733
   -11.5184 -11.5180 -11.4371 -11.4370 -11.3610 -11.3610 -11.2812 -11.2812
     2.6526   2.6527   4.2920   4.2921   4.5756   4.5757   4.5825   4.5827
     7.5400   7.5400   7.8126   7.8128   7.8326   7.8327   8.6286   8.6287
     9.7986   9.7986   9.9311   9.9312  10.0980  10.0980  10.6937  10.6938
    10.8546  10.8548

          k = 0.0000 0.0000-0.5000 (  5942 PWs)   bands (ev):

   -35.0752 -35.0752 -35.0727 -35.0727 -35.0424 -35.0424 -35.0400 -35.0400
   -15.8872 -15.8872 -15.8850 -15.8850 -15.7750 -15.7750 -15.7730 -15.7730
   -11.7489 -11.7489 -11.7475 -11.7475 -11.6078 -11.6078 -11.6066 -11.6066
   -11.5229 -11.5229 -11.5220 -11.5220 -11.3597 -11.3597 -11.3581 -11.3581
     3.5395   3.5395   3.5462   3.5462   4.6429   4.6429   4.6530   4.6530
     7.9556   7.9556   7.9611   7.9611   8.4586   8.4586   8.4591   8.4591
     9.5225   9.5225   9.5248   9.5248  10.7435  10.7435  10.7454  10.7454
    10.9616  10.9616

          k = 0.0000 0.2500 0.2500 (  6016 PWs)   bands (ev):

   -35.0879 -35.0879 -35.0510 -35.0510 -35.0501 -35.0501 -35.0413 -35.0413
   -15.8824 -15.8823 -15.8653 -15.8648 -15.8526 -15.8521 -15.7233 -15.7232
   -11.7798 -11.7795 -11.7420 -11.7420 -11.6989 -11.6984 -11.5826 -11.5825
   -11.4953 -11.4948 -11.4391 -11.4388 -11.4250 -11.4249 -11.2971 -11.2970
     2.9612   2.9612   4.3083   4.3086   4.4002   4.4006   4.5420   4.5421
     7.9550   7.9550   7.9561   7.9562   8.1970   8.1973   8.5240   8.5243
     9.7610   9.7612   9.7811   9.7815   9.8291   9.8294  10.7412  10.7412
    10.9407  10.9408

          k = 0.0000 0.2500-0.5000 (  6018 PWs)   bands (ev):

   -35.0705 -35.0705 -35.0679 -35.0679 -35.0471 -35.0471 -35.0448 -35.0448
   -15.8723 -15.8723 -15.8702 -15.8701 -15.7930 -15.7929 -15.7910 -15.7909
   -11.7445 -11.7438 -11.7437 -11.7427 -11.6323 -11.6312 -11.6307 -11.6303
   -11.4936 -11.4931 -11.4930 -11.4929 -11.3695 -11.3694 -11.3684 -11.3684
     3.6904   3.6908   3.6969   3.6973   4.4570   4.4573   4.4656   4.4660
     8.2175   8.2180   8.2216   8.2222   8.7410   8.7413   8.7415   8.7419
     9.4149   9.4150   9.4155   9.4157  10.3846  10.3849  10.3858  10.3861
    11.2258  11.2262

          k = 0.0000-0.5000-0.5000 (  6024 PWs)   bands (ev):

   -35.0603 -35.0603 -35.0572 -35.0572 -35.0572 -35.0572 -35.0554 -35.0554
   -15.8356 -15.8356 -15.8329 -15.8329 -15.8328 -15.8328 -15.8312 -15.8312
   -11.7020 -11.7020 -11.7014 -11.7014 -11.7000 -11.7000 -11.6995 -11.6995
   -11.4187 -11.4187 -11.4180 -11.4180 -11.4175 -11.4175 -11.4168 -11.4168
     4.0525   4.0525   4.0605   4.0605   4.0613   4.0613   4.0714   4.0714
     8.7765   8.7765   8.7780   8.7780   8.7783   8.7783   8.7804   8.7804
     9.7836   9.7836   9.7895   9.7895   9.7897   9.7897   9.7955   9.7955
    11.1902  11.1920

          k = 0.2500 0.2500 0.2500 (  6007 PWs)   bands (ev):

   -35.0834 -35.0834 -35.0512 -35.0512 -35.0501 -35.0501 -35.0455 -35.0455
   -15.8678 -15.8665 -15.8658 -15.8647 -15.8533 -15.8528 -15.7423 -15.7422
   -11.7907 -11.7905 -11.7299 -11.7298 -11.7043 -11.7039 -11.5771 -11.5770
   -11.4908 -11.4904 -11.4368 -11.4368 -11.4289 -11.4287 -11.3048 -11.3047
     3.0986   3.0986   4.2867   4.2868   4.3770   4.3774   4.5267   4.5267
     7.6970   7.6971   8.3303   8.3312   8.3442   8.3451   9.1263   9.1265
     9.6665   9.6666   9.6963   9.6969   9.7377   9.7382  10.6948  10.6948
    10.9767  10.9767

          k = 0.2500 0.2500-0.5000 (  6004 PWs)   bands (ev):

   -35.0682 -35.0682 -35.0656 -35.0656 -35.0493 -35.0493 -35.0470 -35.0470
   -15.8656 -15.8655 -15.8634 -15.8634 -15.8033 -15.8032 -15.8013 -15.8012
   -11.7576 -11.7572 -11.7567 -11.7560 -11.6624 -11.6616 -11.6613 -11.6607
   -11.4555 -11.4553 -11.4549 -11.4546 -11.3593 -11.3593 -11.3584 -11.3583
     3.6973   3.6978   3.7032   3.7036   4.3977   4.3981   4.4063   4.4068
     8.2677   8.2679   8.2704   8.2705   9.0597   9.0600   9.0609   9.0612
     9.6348   9.6349   9.6392   9.6394  10.2180  10.2182  10.2207  10.2208
    11.0685  11.0690

          k = 0.2500-0.5000-0.5000 (  6000 PWs)   bands (ev):

   -35.0603 -35.0603 -35.0572 -35.0572 -35.0572 -35.0572 -35.0554 -35.0554
   -15.8379 -15.8379 -15.8353 -15.8352 -15.8352 -15.8352 -15.8337 -15.8336
   -11.7322 -11.7322 -11.7316 -11.7315 -11.7304 -11.7302 -11.7299 -11.7298
   -11.3830 -11.3829 -11.3825 -11.3821 -11.3817 -11.3815 -11.3811 -11.3810
     3.9681   3.9682   3.9761   3.9762   3.9769   3.9769   3.9870   3.9870
     8.9930   8.9930   8.9939   8.9939   8.9944   8.9946   8.9959   8.9960
    10.1103  10.1105  10.1144  10.1147  10.1152  10.1154  10.1193  10.1196
    10.7284  10.7293

          k =-0.5000-0.5000-0.5000 (  6008 PWs)   bands (ev):

   -35.0602 -35.0602 -35.0571 -35.0571 -35.0571 -35.0571 -35.0553 -35.0553
   -15.8403 -15.8403 -15.8376 -15.8376 -15.8376 -15.8376 -15.8361 -15.8361
   -11.7571 -11.7571 -11.7565 -11.7565 -11.7553 -11.7553 -11.7549 -11.7549
   -11.3525 -11.3525 -11.3520 -11.3520 -11.3509 -11.3509 -11.3507 -11.3507
     3.8882   3.8882   3.8962   3.8962   3.8969   3.8969   3.9070   3.9070
     9.2335   9.2335   9.2346   9.2346   9.2353   9.2353   9.2358   9.2358
    10.3676  10.3676  10.3689  10.3689  10.3693  10.3693  10.3707  10.3707
    10.5957  10.5961

          k = 0.2500 0.0000 0.0000 (  6023 PWs)   bands (ev):

   -35.0983 -35.0983 -35.0465 -35.0465 -35.0429 -35.0429 -35.0426 -35.0426
   -15.8855 -15.8855 -15.8848 -15.8848 -15.8625 -15.8625 -15.6861 -15.6861
   -11.7930 -11.7926 -11.7925 -11.7922 -11.7127 -11.7127 -11.5140 -11.5140
   -11.5018 -11.5014 -11.5013 -11.5009 -11.3162 -11.3162 -11.3128 -11.3128
     2.5372   2.5373   4.5625   4.5626   4.5627   4.5628   4.5679   4.5679
     6.9889   6.9889   7.8099   7.8100   7.8100   7.8100   9.3115   9.3115
     9.9020   9.9021   9.9186   9.9187   9.9188   9.9188  10.6903  10.6903
    10.8493  10.8496

          k =-0.5000 0.0000 0.0000 (  5942 PWs)   bands (ev):

   -35.0899 -35.0899 -35.0542 -35.0542 -35.0432 -35.0432 -35.0429 -35.0429
   -15.8848 -15.8848 -15.8842 -15.8842 -15.8269 -15.8269 -15.7230 -15.7230
   -11.7739 -11.7739 -11.7735 -11.7735 -11.6290 -11.6290 -11.5275 -11.5275
   -11.5271 -11.5271 -11.4787 -11.4787 -11.4103 -11.4103 -11.3527 -11.3527
     2.8515   2.8515   4.6173   4.6173   4.6176   4.6176   4.6313   4.6313
     6.4959   6.4959   8.3721   8.3721   8.3722   8.3722   9.4568   9.4568
     9.7420   9.7420   9.7420   9.7420  10.1949  10.1949  10.8827  10.8827
    11.2345  11.2345

          k = 0.0000 0.2500-0.2500 (  6016 PWs)   bands (ev):

   -35.0879 -35.0879 -35.0510 -35.0510 -35.0501 -35.0501 -35.0413 -35.0413
   -15.8824 -15.8823 -15.8653 -15.8648 -15.8526 -15.8521 -15.7233 -15.7232
   -11.7797 -11.7795 -11.7420 -11.7420 -11.6989 -11.6984 -11.5826 -11.5825
   -11.4953 -11.4948 -11.4391 -11.4389 -11.4250 -11.4249 -11.2971 -11.2970
     2.9613   2.9614   4.3079   4.3080   4.4006   4.4007   4.5421   4.5424
     7.9534   7.9535   7.9576   7.9577   8.1969   8.1972   8.5239   8.5242
     9.7611   9.7613   9.7811   9.7812   9.8290   9.8292  10.7412  10.7412
    10.9406  10.9408

          k = 0.2500 0.0000-0.2500 (  6016 PWs)   bands (ev):

   -35.0902 -35.0902 -35.0515 -35.0515 -35.0456 -35.0456 -35.0429 -35.0429
   -15.8838 -15.8835 -15.8666 -15.8663 -15.8556 -15.8555 -15.7163 -15.7163
   -11.8025 -11.8023 -11.7153 -11.7152 -11.7129 -11.7125 -11.5488 -11.5487
   -11.5249 -11.5244 -11.4491 -11.4489 -11.4019 -11.4019 -11.3058 -11.3058
     2.8565   2.8566   4.3067   4.3068   4.6105   4.6107   4.6178   4.6181
     7.3184   7.3184   7.9018   7.9018   8.2084   8.2085   9.0793   9.0793
     9.6822   9.6825   9.7452   9.7452   9.7875   9.7877  10.6782  10.6783
    10.9908  10.9910

          k =-0.2500 0.0000-0.2500 (  6016 PWs)   bands (ev):

   -35.0902 -35.0902 -35.0515 -35.0515 -35.0456 -35.0456 -35.0429 -35.0429
   -15.8838 -15.8835 -15.8666 -15.8663 -15.8556 -15.8555 -15.7163 -15.7162
   -11.8027 -11.8025 -11.7155 -11.7154 -11.7126 -11.7122 -11.5489 -11.5488
   -11.5251 -11.5247 -11.4489 -11.4487 -11.4014 -11.4014 -11.3060 -11.3060
     2.8559   2.8559   4.3056   4.3057   4.6104   4.6106   4.6176   4.6179
     7.3193   7.3193   7.9032   7.9033   8.2110   8.2111   9.0833   9.0834
     9.6823   9.6825   9.7491   9.7493   9.7878   9.7881  10.6751  10.6751
    10.9868  10.9869

          k = 0.2500 0.0000 0.5000 (  6018 PWs)   bands (ev):

   -35.0721 -35.0721 -35.0695 -35.0695 -35.0455 -35.0455 -35.0432 -35.0432
   -15.8763 -15.8763 -15.8741 -15.8741 -15.7882 -15.7882 -15.7863 -15.7862
   -11.7510 -11.7509 -11.7500 -11.7499 -11.6169 -11.6168 -11.6157 -11.6156
   -11.5033 -11.5031 -11.5027 -11.5025 -11.3696 -11.3695 -11.3686 -11.3685
     3.6113   3.6113   3.6170   3.6171   4.6552   4.6552   4.6652   4.6653
     7.8479   7.8480   7.8493   7.8494   8.7993   8.7994   8.8012   8.8013
     9.6075   9.6076   9.6109   9.6110  10.0778  10.0779  10.0815  10.0816
    11.6646  11.6647

          k =-0.5000-0.2500 0.0000 (  6018 PWs)   bands (ev):

   -35.0831 -35.0831 -35.0530 -35.0530 -35.0495 -35.0495 -35.0445 -35.0445
   -15.8798 -15.8794 -15.8603 -15.8598 -15.8368 -15.8368 -15.7479 -15.7478
   -11.8006 -11.8003 -11.7025 -11.7020 -11.6593 -11.6592 -11.5617 -11.5616
   -11.5349 -11.5343 -11.4597 -11.4595 -11.3897 -11.3896 -11.3695 -11.3694
     3.0926   3.0927   4.3206   4.3206   4.6452   4.6455   4.6553   4.6556
     6.8495   6.8495   8.6971   8.6972   8.7448   8.7449   8.9170   8.9171
     9.5443   9.5443   9.7542   9.7542   9.8790   9.8790  10.5051  10.5052
    11.3592  11.3594

          k =-0.5000 0.0000 0.5000 (  6024 PWs)   bands (ev):

   -35.0680 -35.0680 -35.0653 -35.0653 -35.0496 -35.0496 -35.0473 -35.0473
   -15.8606 -15.8606 -15.8582 -15.8582 -15.8062 -15.8062 -15.8045 -15.8045
   -11.7431 -11.7431 -11.7423 -11.7423 -11.6470 -11.6470 -11.6461 -11.6461
   -11.4563 -11.4563 -11.4561 -11.4561 -11.3950 -11.3950 -11.3950 -11.3950
     3.6839   3.6839   3.6886   3.6886   4.6679   4.6679   4.6778   4.6778
     7.7548   7.7548   7.7576   7.7576   9.4339   9.4339   9.4383   9.4383
     9.6382   9.6382   9.6392   9.6392   9.7004   9.7004   9.7043   9.7043
    11.4759  11.4768

          k =-0.2500 0.2500-0.2500 (  6007 PWs)   bands (ev):

   -35.0834 -35.0834 -35.0512 -35.0512 -35.0501 -35.0500 -35.0455 -35.0455
   -15.8677 -15.8665 -15.8657 -15.8648 -15.8532 -15.8528 -15.7423 -15.7423
   -11.7905 -11.7903 -11.7298 -11.7297 -11.7045 -11.7041 -11.5769 -11.5768
   -11.4906 -11.4901 -11.4372 -11.4372 -11.4290 -11.4289 -11.3046 -11.3046
     3.0997   3.0998   4.2867   4.2869   4.3781   4.3782   4.5262   4.5265
     7.6965   7.6966   8.3278   8.3278   8.3421   8.3421   9.1249   9.1250
     9.6671   9.6671   9.6921   9.6922   9.7381   9.7382  10.6959  10.6961
    10.9786  10.9788

          k = 0.2500-0.2500-0.2500 (  6007 PWs)   bands (ev):

   -35.0834 -35.0834 -35.0512 -35.0512 -35.0501 -35.0501 -35.0455 -35.0455
   -15.8678 -15.8664 -15.8657 -15.8647 -15.8533 -15.8528 -15.7424 -15.7423
   -11.7904 -11.7902 -11.7297 -11.7296 -11.7048 -11.7043 -11.5768 -11.5767
   -11.4904 -11.4899 -11.4376 -11.4376 -11.4292 -11.4290 -11.3045 -11.3045
     3.1005   3.1006   4.2876   4.2881   4.3783   4.3789   4.5256   4.5256
     7.6964   7.6965   8.3248   8.3257   8.3388   8.3396   9.1233   9.1234
     9.6671   9.6678   9.6877   9.6884   9.7386   9.7386  10.6973  10.6973
    10.9807  10.9808

          k =-0.2500 0.2500 0.5000 (  6004 PWs)   bands (ev):

   -35.0682 -35.0682 -35.0656 -35.0656 -35.0493 -35.0493 -35.0470 -35.0470
   -15.8656 -15.8655 -15.8634 -15.8633 -15.8033 -15.8032 -15.8013 -15.8012
   -11.7574 -11.7570 -11.7566 -11.7560 -11.6625 -11.6617 -11.6613 -11.6608
   -11.4557 -11.4554 -11.4551 -11.4547 -11.3593 -11.3591 -11.3584 -11.3582
     3.6987   3.6991   3.7048   3.7053   4.3969   4.3973   4.4053   4.4058
     8.2662   8.2664   8.2692   8.2694   9.0590   9.0593   9.0596   9.0598
     9.6313   9.6315   9.6362   9.6364  10.2185  10.2186  10.2222  10.2224
    11.0699  11.0705

          k =-0.5000-0.2500 0.2500 (  6004 PWs)   bands (ev):

   -35.0775 -35.0775 -35.0531 -35.0531 -35.0500 -35.0500 -35.0495 -35.0495
   -15.8674 -15.8667 -15.8545 -15.8536 -15.8425 -15.8424 -15.7689 -15.7688
   -11.8007 -11.8006 -11.7099 -11.7095 -11.6953 -11.6951 -11.6220 -11.6219
   -11.4863 -11.4858 -11.4197 -11.4195 -11.3859 -11.3858 -11.3472 -11.3471
     3.2587   3.2588   4.2673   4.2674   4.3574   4.3575   4.4956   4.4959
     7.3627   7.3628   8.9911   8.9912   9.0526   9.0527   9.3167   9.3169
     9.3574   9.3576   9.5782   9.5782   9.9591   9.9592  10.6175  10.6177
    10.8467  10.8467

          k = 0.5000-0.2500-0.2500 (  6004 PWs)   bands (ev):

   -35.0775 -35.0775 -35.0531 -35.0531 -35.0500 -35.0500 -35.0495 -35.0495
   -15.8674 -15.8667 -15.8545 -15.8536 -15.8425 -15.8424 -15.7689 -15.7688
   -11.8008 -11.8005 -11.7099 -11.7095 -11.6953 -11.6951 -11.6220 -11.6219
   -11.4863 -11.4858 -11.4197 -11.4195 -11.3859 -11.3858 -11.3472 -11.3471
     3.2586   3.2586   4.2677   4.2679   4.3571   4.3574   4.4955   4.4956
     7.3630   7.3630   8.9910   8.9912   9.0525   9.0527   9.3167   9.3169
     9.3574   9.3577   9.5783   9.5783   9.9591   9.9591  10.6177  10.6177
    10.8468  10.8468

          k =-0.5000 0.2500 0.5000 (  6000 PWs)   bands (ev):

   -35.0653 -35.0653 -35.0626 -35.0626 -35.0521 -35.0521 -35.0499 -35.0499
   -15.8554 -15.8553 -15.8531 -15.8531 -15.8169 -15.8169 -15.8152 -15.8151
   -11.7609 -11.7607 -11.7601 -11.7596 -11.6982 -11.6977 -11.6972 -11.6969
   -11.4067 -11.4064 -11.4062 -11.4054 -11.3642 -11.3637 -11.3637 -11.3632
     3.7108   3.7114   3.7160   3.7167   4.3308   4.3313   4.3392   4.3398
     8.3529   8.3531   8.3559   8.3561   9.5358   9.5361   9.5365   9.5369
     9.8084   9.8091   9.8125   9.8132  10.1118  10.1122  10.1146  10.1150
    10.7666  10.7669

     the Fermi energy is     9.4353 ev

!    total energy              =   -2243.38430169 Ry
     Harris-Foulkes estimate   =   -2243.38430170 Ry
     estimated scf accuracy    <          6.9E-09 Ry

     total all-electron energy =    -90247.727696 Ry

     The total energy is the sum of the following terms:

     one-electron contribution =     -62.16283855 Ry
     hartree contribution      =      48.49285523 Ry
     xc contribution           =    -254.17921649 Ry
     ewald contribution        =    -227.46992973 Ry
     one-center paw contrib.   =   -1748.06211664 Ry
     smearing contrib. (-TS)   =      -0.00305551 Ry

     convergence has been achieved in   9 iterations

     Forces acting on atoms (cartesian axes, Ry/au):

     atom    1 type  1   force =     0.00010350   -0.00001003   -0.00001003
     atom    2 type  1   force =    -0.00013563    0.00012588    0.00012588
     atom    3 type  1   force =     0.00021614    0.00014496    0.00017712
     atom    4 type  1   force =     0.00021614    0.00017712    0.00014496
     atom    5 type  2   force =    -0.00013084   -0.00097438   -0.00097438
     atom    6 type  2   force =    -0.00009091    0.00022278    0.00006801
     atom    7 type  2   force =    -0.00008750    0.00024566    0.00024566
     atom    8 type  2   force =    -0.00009091    0.00006801    0.00022278

     Total force =     0.001558     Total SCF correction =     0.000255
     SCF correction compared to forces is large: reduce conv_thr to get better values


     Computing stress (Cartesian axis) and pressure

     Message from routine stres:
     noncollinear stress + GGA not implemented

     Writing output data file 2303.save
 
     init_run     :      6.25s CPU      6.79s WALL (       2 calls)
     electrons    :    251.74s CPU    285.32s WALL (       7 calls)
     update_pot   :      1.59s CPU      3.60s WALL (       5 calls)
     forces       :     11.51s CPU     13.53s WALL (       7 calls)

     Called by init_run:
     wfcinit      :      4.89s CPU      5.25s WALL (       2 calls)
     potinit      :      0.66s CPU      0.72s WALL (       2 calls)

     Called by electrons:
     c_bands      :    210.00s CPU    237.90s WALL (      42 calls)
     sum_band     :     28.86s CPU     32.42s WALL (      42 calls)
     v_of_rho     :      0.20s CPU      0.25s WALL (      47 calls)
     newd         :      4.11s CPU      4.55s WALL (      47 calls)
     PAW_pot      :      9.96s CPU     11.74s WALL (      52 calls)
     mix_rho      :      0.16s CPU      0.17s WALL (      42 calls)

     Called by c_bands:
     init_us_2    :      0.75s CPU      0.86s WALL (    2352 calls)
     cegterg      :    195.59s CPU    221.85s WALL (    1008 calls)

     Called by sum_band:
     sum_band:bec :      4.98s CPU      5.20s WALL (    1128 calls)
     addusdens    :      1.34s CPU      1.44s WALL (      42 calls)

     Called by *egterg:
     h_psi        :    115.35s CPU    131.77s WALL (    4727 calls)
     s_psi        :      9.69s CPU     10.31s WALL (    4727 calls)
     g_psi        :      0.55s CPU      0.56s WALL (    3671 calls)
     cdiaghg      :     35.28s CPU     38.63s WALL (    4511 calls)

     Called by h_psi:
     h_psi:pot    :    114.51s CPU    130.93s WALL (    4727 calls)
     h_psi:calbec :      9.59s CPU     11.62s WALL (    4727 calls)
     vloc_psi     :     95.36s CPU    109.58s WALL (    4727 calls)
     add_vuspsi   :      9.53s CPU      9.70s WALL (    4727 calls)

     General routines
     calbec       :     16.73s CPU     20.79s WALL (    6527 calls)
     fft          :      0.62s CPU      0.79s WALL (     944 calls)
     fftw         :    106.01s CPU    122.46s WALL (  839908 calls)
     davcio       :      0.01s CPU      0.15s WALL (      48 calls)
 
     Parallel routines
     fft_scatter  :     63.03s CPU     76.48s WALL (  840852 calls)
 
     PWSCF        :  4m34.68s CPU     5m57.97s WALL

 
   This run was terminated on:  17:10:18  13Oct2022            

=------------------------------------------------------------------------------=
   JOB DONE.
=------------------------------------------------------------------------------=
Removing 2303 from /home/shaharpit/tmp
