
     Program PWSCF v.6.1 (svn rev. 13369) starts on 13Oct2022 at 17: 4:20 

     This program is part of the open-source Quantum ESPRESSO suite
     for quantum simulation of materials; please cite
         "P. Giannozzi et al., J. Phys.:Condens. Matter 21 395502 (2009);
          URL http://www.quantum-espresso.org", 
     in publications or presentations arising from this work. More details at
     http://www.quantum-espresso.org/quote

     Parallel version (MPI), running on    16 processors
     R & G space division:  proc/nbgrp/npool/nimage =      16
     Reading input from ./fcc_25.in

     Current dimensions of program PWSCF are:
     Max number of different atomic species (ntypx) = 10
     Max number of k-points (npk) =  40000
     Max angular momentum in pseudopotentials (lmaxx) =  3
               file Gd.rel-pbe-spdn-kjpaw_psl.1.0.0.UPF: wavefunction(s)  5P 5P renormalized
               file H.pbe-kjpaw_psl.0.1.UPF: wavefunction(s)  1S renormalized

     Subspace diagonalization in iterative solution of the eigenvalue problem:
     a serial algorithm will be used

 
     Parallelization info
     --------------------
     sticks:   dense  smooth     PW     G-vecs:    dense   smooth      PW
     Min          99      99     28                 2995     2995     467
     Max         100     100     30                 2998     2998     470
     Sum        1597    1597    465                47937    47937    7497
 


     bravais-lattice index     =            0
     lattice parameter (alat)  =      10.0212  a.u.
     unit-cell volume          =    1006.3788 (a.u.)^3
     number of atoms/cell      =            6
     number of atomic types    =            2
     number of electrons       =        46.00
     number of Kohn-Sham states=           56
     kinetic-energy cutoff     =      50.0000  Ry
     charge density cutoff     =     200.0000  Ry
     convergence threshold     =      1.0E-06
     mixing beta               =       0.7000
     number of iterations used =            8  plain     mixing
     Exchange-correlation      =  SLA  PW   PBX  PBC ( 1  4  3  4 0 0)
     nstep                     =          150

     Non magnetic calculation with spin-orbit


     celldm(1)=  10.021218  celldm(2)=   0.000000  celldm(3)=   0.000000
     celldm(4)=   0.000000  celldm(5)=   0.000000  celldm(6)=   0.000000

     crystal axes: (cart. coord. in units of alat)
               a(1) = (   1.000000   0.000000   0.000000 )  
               a(2) = (   0.000000   1.000000   0.000000 )  
               a(3) = (   0.000000   0.000000   1.000000 )  

     reciprocal axes: (cart. coord. in units 2 pi/alat)
               b(1) = (  1.000000  0.000000  0.000000 )  
               b(2) = (  0.000000  1.000000  0.000000 )  
               b(3) = (  0.000000  0.000000  1.000000 )  


     PseudoPot. # 1 for Gd read from file:
     /home/shaharpit/MeamGdH/dft/qe_potentials/Gd.rel-pbe-spdn-kjpaw_psl.1.0.0.UPF
     MD5 check sum: cf50ec46d1536b4a0251694df1946a53
     Pseudo is Projector augmented-wave + core cor, Zval = 11.0
     Generated using "atomic" code by A. Dal Corso  v.6.2.2
     Shape of augmentation charge: PSQ
     Using radial grid of 1263 points, 10 beta functions with: 
                l(1) =   0
                l(2) =   0
                l(3) =   1
                l(4) =   1
                l(5) =   1
                l(6) =   1
                l(7) =   2
                l(8) =   2
                l(9) =   2
               l(10) =   2
     Q(r) pseudized with 0 coefficients 


     PseudoPot. # 2 for  H read from file:
     /home/shaharpit/MeamGdH/dft/qe_potentials/H.pbe-kjpaw_psl.0.1.UPF
     MD5 check sum: fbb168fef676c0aaadbafd73f5b1efa8
     Pseudo is Projector augmented-wave, Zval =  1.0
     Generated using "atomic" code by A. Dal Corso  v.5.0.2 svn rev. 9415
     Shape of augmentation charge: PSQ
     Using radial grid of  929 points,  2 beta functions with: 
                l(1) =   0
                l(2) =   0
     Q(r) pseudized with 0 coefficients 


     atomic species   valence    mass     pseudopotential
        Gd            11.00   157.25000     Gd( 1.00)
        H              1.00     1.00794      H( 1.00)

     No symmetry found



   Cartesian axes

     site n.     atom                  positions (alat units)
         1           Gd  tau(   1) = (   0.0000000   0.0000000   0.0000000  )
         2           Gd  tau(   2) = (   0.0000000   0.5000000   0.5000000  )
         3           Gd  tau(   3) = (   0.5000000   0.0000000   0.5000000  )
         4           Gd  tau(   4) = (   0.5000000   0.5000000   0.0000000  )
         5           H   tau(   5) = (   0.2500000   0.7539000   0.7539000  )
         6           H   tau(   6) = (   0.2500000   0.7501000   0.2500000  )

     number of k points=    36  gaussian smearing, width (Ry)=  0.0100
                       cart. coord. in units 2pi/alat
        k(    1) = (   0.0000000   0.0000000   0.0000000), wk =   0.0156250
        k(    2) = (   0.0000000   0.0000000   0.2500000), wk =   0.0312500
        k(    3) = (   0.0000000   0.0000000  -0.5000000), wk =   0.0156250
        k(    4) = (   0.0000000   0.2500000   0.2500000), wk =   0.0312500
        k(    5) = (   0.0000000   0.2500000  -0.5000000), wk =   0.0312500
        k(    6) = (   0.0000000  -0.5000000  -0.5000000), wk =   0.0156250
        k(    7) = (   0.2500000   0.2500000   0.2500000), wk =   0.0312500
        k(    8) = (   0.2500000   0.2500000  -0.5000000), wk =   0.0312500
        k(    9) = (   0.2500000  -0.5000000  -0.5000000), wk =   0.0312500
        k(   10) = (  -0.5000000  -0.5000000  -0.5000000), wk =   0.0156250
        k(   11) = (   0.2500000   0.0000000   0.0000000), wk =   0.0312500
        k(   12) = (   0.0000000   0.2500000   0.0000000), wk =   0.0312500
        k(   13) = (  -0.5000000   0.0000000   0.0000000), wk =   0.0156250
        k(   14) = (   0.0000000  -0.5000000   0.0000000), wk =   0.0156250
        k(   15) = (   0.0000000  -0.2500000   0.2500000), wk =   0.0312500
        k(   16) = (   0.2500000   0.0000000  -0.2500000), wk =   0.0312500
        k(   17) = (  -0.2500000   0.0000000  -0.2500000), wk =   0.0312500
        k(   18) = (   0.2500000  -0.2500000   0.0000000), wk =   0.0312500
        k(   19) = (  -0.2500000  -0.2500000   0.0000000), wk =   0.0312500
        k(   20) = (   0.2500000   0.0000000   0.5000000), wk =   0.0312500
        k(   21) = (  -0.5000000  -0.2500000   0.0000000), wk =   0.0312500
        k(   22) = (   0.0000000  -0.5000000   0.2500000), wk =   0.0312500
        k(   23) = (   0.2500000  -0.5000000   0.0000000), wk =   0.0312500
        k(   24) = (  -0.5000000   0.0000000   0.2500000), wk =   0.0312500
        k(   25) = (  -0.5000000   0.0000000   0.5000000), wk =   0.0156250
        k(   26) = (  -0.5000000   0.5000000   0.0000000), wk =   0.0156250
        k(   27) = (  -0.2500000  -0.2500000   0.2500000), wk =   0.0312500
        k(   28) = (  -0.2500000   0.2500000  -0.2500000), wk =   0.0312500
        k(   29) = (   0.2500000  -0.2500000  -0.2500000), wk =   0.0312500
        k(   30) = (  -0.2500000   0.2500000   0.5000000), wk =   0.0312500
        k(   31) = (  -0.5000000  -0.2500000   0.2500000), wk =   0.0312500
        k(   32) = (   0.5000000  -0.2500000  -0.2500000), wk =   0.0312500
        k(   33) = (  -0.2500000  -0.5000000   0.2500000), wk =   0.0312500
        k(   34) = (  -0.2500000   0.5000000  -0.2500000), wk =   0.0312500
        k(   35) = (  -0.5000000   0.2500000   0.5000000), wk =   0.0312500
        k(   36) = (  -0.5000000   0.5000000   0.2500000), wk =   0.0312500

     Dense  grid:    47937 G-vectors     FFT dimensions: (  45,  45,  45)

     Estimated max dynamical RAM per process >      36.51MB

     Estimated total allocated dynamical RAM >     584.23MB

     Check: negative/imaginary core charge=   -0.000002    0.000000

     Initial potential from superposition of free atoms

     starting charge   45.92379, renormalised to   46.00000
     Starting wfc are  108 randomized atomic wfcs
     Checking if some PAW data can be deallocated... 

     total cpu time spent up to now is        6.5 secs

     per-process dynamical memory:    86.5 Mb

     Self-consistent Calculation

     iteration #  1     ecut=    50.00 Ry     beta=0.70
     Davidson diagonalization with overlap
     ethr =  1.00E-02,  avg # of iterations =  2.0

     Threshold (ethr) on eigenvalues was too large:
     Diagonalizing with lowered threshold

     Davidson diagonalization with overlap
     ethr =  5.34E-04,  avg # of iterations =  1.9

     total cpu time spent up to now is       18.3 secs

     total energy              =   -2240.82082452 Ry
     Harris-Foulkes estimate   =   -2240.99986759 Ry
     estimated scf accuracy    <       0.26201973 Ry

     iteration #  2     ecut=    50.00 Ry     beta=0.70
     Davidson diagonalization with overlap
     ethr =  5.70E-04,  avg # of iterations =  3.0

     total cpu time spent up to now is       27.2 secs

     total energy              =   -2240.85754958 Ry
     Harris-Foulkes estimate   =   -2240.95459709 Ry
     estimated scf accuracy    <       0.18889801 Ry

     iteration #  3     ecut=    50.00 Ry     beta=0.70
     Davidson diagonalization with overlap
     ethr =  4.11E-04,  avg # of iterations =  2.2

     total cpu time spent up to now is       34.2 secs

     total energy              =   -2240.90330935 Ry
     Harris-Foulkes estimate   =   -2240.91328825 Ry
     estimated scf accuracy    <       0.02622950 Ry

     iteration #  4     ecut=    50.00 Ry     beta=0.70
     Davidson diagonalization with overlap
     ethr =  5.70E-05,  avg # of iterations =  2.0

     total cpu time spent up to now is       40.0 secs

     total energy              =   -2240.90782140 Ry
     Harris-Foulkes estimate   =   -2240.90796016 Ry
     estimated scf accuracy    <       0.00041341 Ry

     iteration #  5     ecut=    50.00 Ry     beta=0.70
     Davidson diagonalization with overlap
     ethr =  8.99E-07,  avg # of iterations =  3.8

     total cpu time spent up to now is       49.5 secs

     total energy              =   -2240.90796522 Ry
     Harris-Foulkes estimate   =   -2240.90798100 Ry
     estimated scf accuracy    <       0.00005059 Ry

     iteration #  6     ecut=    50.00 Ry     beta=0.70
     Davidson diagonalization with overlap
     ethr =  1.10E-07,  avg # of iterations =  3.9

     total cpu time spent up to now is       57.1 secs

     total energy              =   -2240.90796755 Ry
     Harris-Foulkes estimate   =   -2240.90799142 Ry
     estimated scf accuracy    <       0.00006487 Ry

     iteration #  7     ecut=    50.00 Ry     beta=0.70
     Davidson diagonalization with overlap
     ethr =  1.10E-07,  avg # of iterations =  3.0

     total cpu time spent up to now is       65.6 secs

     total energy              =   -2240.90797956 Ry
     Harris-Foulkes estimate   =   -2240.90797995 Ry
     estimated scf accuracy    <       0.00000132 Ry

     iteration #  8     ecut=    50.00 Ry     beta=0.70
     Davidson diagonalization with overlap
     ethr =  2.86E-09,  avg # of iterations =  3.6

     total cpu time spent up to now is       73.8 secs

     End of self-consistent calculation

          k = 0.0000 0.0000 0.0000 (  6031 PWs)   bands (ev):

   -35.3108 -35.3108 -35.2631 -35.2631 -35.2564 -35.2564 -35.2480 -35.2480
   -16.0743 -16.0743 -16.0654 -16.0654 -16.0559 -16.0559 -15.8656 -15.8656
   -11.9573 -11.9573 -11.9279 -11.9279 -11.8908 -11.8908 -11.6950 -11.6950
   -11.6790 -11.6790 -11.6693 -11.6693 -11.4686 -11.4686 -11.4633 -11.4633
     2.8500   2.8500   4.7297   4.7297   6.7181   6.7181   7.3439   7.3439
     7.3488   7.3488   7.3511   7.3511   8.2481   8.2481   9.4433   9.4433
    10.1236  10.1236  10.4884  10.4884  10.4957  10.4957  10.6680  10.6680

          k = 0.0000 0.0000 0.2500 (  6023 PWs)   bands (ev):

   -35.3032 -35.3032 -35.2669 -35.2669 -35.2587 -35.2587 -35.2493 -35.2493
   -16.0714 -16.0711 -16.0600 -16.0586 -16.0364 -16.0348 -15.8955 -15.8952
   -11.9303 -11.9303 -11.8798 -11.8781 -11.8637 -11.8612 -11.7246 -11.7234
   -11.6975 -11.6974 -11.6488 -11.6487 -11.5415 -11.5413 -11.4952 -11.4951
     3.2054   3.2062   4.5977   4.5987   6.9115   6.9126   7.3951   7.3952
     7.7563   7.7565   7.7583   7.7592   8.5460   8.5460   9.2172   9.2175
     9.7283   9.7289  10.1878  10.1889  10.5247  10.5247  10.7562  10.7563

          k = 0.0000 0.0000-0.5000 (  5942 PWs)   bands (ev):

   -35.2888 -35.2888 -35.2795 -35.2795 -35.2598 -35.2598 -35.2500 -35.2500
   -16.0686 -16.0686 -16.0604 -16.0604 -15.9707 -15.9707 -15.9621 -15.9621
   -11.8772 -11.8772 -11.8706 -11.8706 -11.7521 -11.7521 -11.7446 -11.7446
   -11.7133 -11.7133 -11.7057 -11.7057 -11.5752 -11.5752 -11.5669 -11.5669
     3.9945   3.9945   4.0257   4.0257   7.2638   7.2638   7.2763   7.2763
     8.3588   8.3588   8.3598   8.3598   9.1590   9.1590   9.1600   9.1600
     9.3914   9.3914   9.3930   9.3930  10.5628  10.5629  10.5686  10.5686

          k = 0.0000 0.2500 0.2500 (  6016 PWs)   bands (ev):

   -35.2969 -35.2969 -35.2668 -35.2668 -35.2630 -35.2630 -35.2514 -35.2514
   -16.0642 -16.0629 -16.0430 -16.0409 -16.0391 -16.0360 -15.9211 -15.9207
   -11.9090 -11.9084 -11.8693 -11.8691 -11.8450 -11.8440 -11.7155 -11.7143
   -11.6685 -11.6684 -11.6656 -11.6654 -11.6167 -11.6167 -11.5059 -11.5059
     3.4352   3.4358   4.6338   4.6350   6.7990   6.7999   7.7774   7.7777
     7.9546   7.9553   8.1128   8.1129   8.6995   8.6995   9.2576   9.2578
     9.4215   9.4219   9.8591   9.8594  10.0333  10.0334  10.7193  10.7195

          k = 0.0000 0.2500-0.5000 (  6018 PWs)   bands (ev):

   -35.2853 -35.2853 -35.2760 -35.2760 -35.2633 -35.2633 -35.2534 -35.2534
   -16.0563 -16.0560 -16.0471 -16.0468 -15.9866 -15.9862 -15.9771 -15.9766
   -11.8931 -11.8930 -11.8525 -11.8524 -11.7741 -11.7720 -11.7410 -11.7406
   -11.7147 -11.7115 -11.6834 -11.6831 -11.5877 -11.5871 -11.5664 -11.5660
     4.0760   4.0768   4.1092   4.1101   7.3488   7.3490   7.4070   7.4082
     8.6319   8.6336   8.6818   8.6823   8.9904   8.9906   8.9928   8.9931
     9.3001   9.3002   9.3036   9.3038  10.1638  10.1639  10.1781  10.1785

          k = 0.0000-0.5000-0.5000 (  6024 PWs)   bands (ev):

   -35.2799 -35.2799 -35.2708 -35.2708 -35.2687 -35.2687 -35.2586 -35.2586
   -16.0284 -16.0284 -16.0213 -16.0213 -16.0147 -16.0147 -16.0066 -16.0066
   -11.8569 -11.8569 -11.8566 -11.8566 -11.8080 -11.8080 -11.8079 -11.8079
   -11.6367 -11.6367 -11.6349 -11.6349 -11.6063 -11.6063 -11.6055 -11.6055
     4.1632   4.1632   4.1904   4.1904   7.5177   7.5177   7.5179   7.5179
     8.6054   8.6054   8.6077   8.6077   9.3342   9.3342   9.3347   9.3347
     9.5458   9.5458   9.5459   9.5459   9.6127   9.6127   9.6136   9.6136

          k = 0.2500 0.2500 0.2500 (  6007 PWs)   bands (ev):

   -35.2916 -35.2916 -35.2693 -35.2693 -35.2630 -35.2630 -35.2541 -35.2541
   -16.0498 -16.0487 -16.0438 -16.0405 -16.0370 -16.0325 -15.9426 -15.9422
   -11.9018 -11.9008 -11.8810 -11.8794 -11.8493 -11.8478 -11.6936 -11.6925
   -11.6733 -11.6722 -11.6556 -11.6542 -11.6412 -11.6404 -11.5059 -11.5058
     3.5663   3.5669   4.6103   4.6112   6.8302   6.8307   7.8539   7.8540
     8.1341   8.1350   8.4382   8.4390   8.8319   8.8321   9.2706   9.2712
     9.3660   9.3664   9.7708   9.7709   9.9356   9.9358  10.7157  10.7159

          k = 0.2500 0.2500-0.5000 (  6004 PWs)   bands (ev):

   -35.2828 -35.2828 -35.2740 -35.2740 -35.2657 -35.2657 -35.2554 -35.2554
   -16.0477 -16.0473 -16.0396 -16.0392 -15.9998 -15.9994 -15.9869 -15.9866
   -11.9091 -11.9090 -11.8646 -11.8641 -11.8250 -11.8241 -11.7825 -11.7825
   -11.6668 -11.6658 -11.6310 -11.6308 -11.5711 -11.5707 -11.5525 -11.5523
     4.0039   4.0043   4.1646   4.1647   7.0475   7.0476   8.0301   8.0364
     8.1334   8.1398   8.9495   8.9534   8.9789   8.9824   9.0738   9.0745
     9.4253   9.4255   9.9289   9.9290  10.2360  10.2382  10.2433  10.2454

          k = 0.2500-0.5000-0.5000 (  6000 PWs)   bands (ev):

   -35.2798 -35.2798 -35.2708 -35.2708 -35.2686 -35.2686 -35.2586 -35.2586
   -16.0312 -16.0311 -16.0239 -16.0238 -16.0167 -16.0167 -16.0085 -16.0084
   -11.8968 -11.8965 -11.8921 -11.8918 -11.8463 -11.8462 -11.8408 -11.8408
   -11.5961 -11.5959 -11.5895 -11.5893 -11.5690 -11.5690 -11.5627 -11.5627
     4.0577   4.0579   4.0841   4.0843   7.3238   7.3239   7.3252   7.3252
     8.7408   8.7413   8.7446   8.7451   9.4592   9.4592   9.4681   9.4681
     9.9006   9.9015   9.9087   9.9096  10.2128  10.2128  10.2193  10.2194

          k =-0.5000-0.5000-0.5000 (  6008 PWs)   bands (ev):

   -35.2798 -35.2798 -35.2707 -35.2707 -35.2686 -35.2686 -35.2585 -35.2585
   -16.0338 -16.0338 -16.0264 -16.0264 -16.0187 -16.0187 -16.0104 -16.0104
   -11.9258 -11.9258 -11.9207 -11.9207 -11.8737 -11.8737 -11.8678 -11.8678
   -11.5623 -11.5623 -11.5545 -11.5545 -11.5376 -11.5376 -11.5302 -11.5302
     3.9598   3.9598   3.9854   3.9854   7.1439   7.1439   7.1450   7.1450
     8.9441   8.9441   8.9492   8.9492   9.8406   9.8406   9.8416   9.8416
    10.3035  10.3035  10.3043  10.3043  10.4140  10.4140  10.4155  10.4155

          k = 0.2500 0.0000 0.0000 (  6023 PWs)   bands (ev):

   -35.3031 -35.3031 -35.2682 -35.2682 -35.2563 -35.2563 -35.2505 -35.2505
   -16.0677 -16.0667 -16.0650 -16.0649 -16.0346 -16.0334 -15.8954 -15.8951
   -11.9207 -11.9201 -11.9061 -11.9056 -11.8462 -11.8454 -11.7136 -11.7132
   -11.7081 -11.7072 -11.6487 -11.6485 -11.5379 -11.5376 -11.4991 -11.4990
     3.1460   3.1463   4.8081   4.8082   6.5372   6.5374   7.6029   7.6041
     7.7523   7.7527   7.7569   7.7588   8.5170   8.5171   9.4004   9.4006
     9.5503   9.5511  10.2057  10.2067  10.5222  10.5224  10.7615  10.7619

          k = 0.0000 0.2500 0.0000 (  6023 PWs)   bands (ev):

   -35.3033 -35.3033 -35.2660 -35.2660 -35.2600 -35.2600 -35.2489 -35.2489
   -16.0708 -16.0704 -16.0609 -16.0604 -16.0351 -16.0348 -15.8953 -15.8952
   -11.9208 -11.9207 -11.9056 -11.9054 -11.8459 -11.8458 -11.7146 -11.7142
   -11.7066 -11.7063 -11.6489 -11.6488 -11.5379 -11.5377 -11.4989 -11.4989
     3.1460   3.1462   4.8080   4.8081   6.5371   6.5374   7.6038   7.6039
     7.7524   7.7527   7.7575   7.7575   8.5171   8.5171   9.4003   9.4004
     9.5505   9.5512  10.2060  10.2065  10.5223  10.5224  10.7617  10.7618

          k =-0.5000 0.0000 0.0000 (  5942 PWs)   bands (ev):

   -35.2866 -35.2866 -35.2831 -35.2831 -35.2563 -35.2563 -35.2521 -35.2521
   -16.0652 -16.0652 -16.0644 -16.0644 -15.9697 -15.9697 -15.9624 -15.9624
   -11.8797 -11.8797 -11.8738 -11.8738 -11.7513 -11.7513 -11.7478 -11.7478
   -11.7108 -11.7108 -11.6920 -11.6920 -11.5770 -11.5770 -11.5733 -11.5733
     3.5199   3.5199   4.8927   4.8927   6.2188   6.2188   7.9335   7.9335
     8.3564   8.3564   8.3593   8.3593   9.0726   9.0726   9.2534   9.2534
     9.3499   9.3499   9.3699   9.3699  10.5337  10.5337  10.6390  10.6390

          k = 0.0000-0.5000 0.0000 (  5942 PWs)   bands (ev):

   -35.2896 -35.2896 -35.2780 -35.2780 -35.2612 -35.2612 -35.2493 -35.2493
   -16.0696 -16.0696 -16.0594 -16.0594 -15.9727 -15.9727 -15.9599 -15.9599
   -11.8819 -11.8819 -11.8714 -11.8714 -11.7538 -11.7538 -11.7445 -11.7445
   -11.7121 -11.7121 -11.6915 -11.6915 -11.5807 -11.5807 -11.5698 -11.5698
     3.5198   3.5198   4.8925   4.8925   6.2189   6.2189   7.9337   7.9337
     8.3567   8.3567   8.3589   8.3589   9.0726   9.0726   9.2534   9.2534
     9.3498   9.3498   9.3699   9.3699  10.5337  10.5337  10.6390  10.6391

          k = 0.0000-0.2500 0.2500 (  6016 PWs)   bands (ev):

   -35.2969 -35.2969 -35.2668 -35.2668 -35.2630 -35.2630 -35.2514 -35.2514
   -16.0641 -16.0630 -16.0430 -16.0409 -16.0390 -16.0360 -15.9212 -15.9207
   -11.9090 -11.9084 -11.8696 -11.8689 -11.8450 -11.8440 -11.7159 -11.7140
   -11.6684 -11.6683 -11.6656 -11.6655 -11.6169 -11.6166 -11.5059 -11.5059
     3.4350   3.4361   4.6339   4.6348   6.7996   6.7998   7.7772   7.7774
     7.9548   7.9552   8.1126   8.1128   8.6995   8.6995   9.2577   9.2577
     9.4218   9.4220   9.8592   9.8593  10.0333  10.0334  10.7193  10.7195

          k = 0.2500 0.0000-0.2500 (  6016 PWs)   bands (ev):

   -35.2968 -35.2968 -35.2689 -35.2689 -35.2601 -35.2601 -35.2523 -35.2523
   -16.0628 -16.0627 -16.0473 -16.0430 -16.0372 -16.0329 -15.9212 -15.9208
   -11.9089 -11.9083 -11.8705 -11.8678 -11.8458 -11.8428 -11.7154 -11.7150
   -11.6706 -11.6693 -11.6641 -11.6635 -11.6172 -11.6169 -11.5059 -11.5059
     3.4366   3.4373   4.6348   4.6358   6.7975   6.7979   7.7780   7.7783
     7.9536   7.9548   8.1105   8.1119   8.6995   8.6996   9.2537   9.2539
     9.4177   9.4180   9.8592   9.8594  10.0334  10.0338  10.7215  10.7216

          k =-0.2500 0.0000-0.2500 (  6016 PWs)   bands (ev):

   -35.2968 -35.2968 -35.2689 -35.2689 -35.2601 -35.2601 -35.2523 -35.2523
   -16.0628 -16.0626 -16.0473 -16.0431 -16.0372 -16.0330 -15.9211 -15.9207
   -11.9090 -11.9084 -11.8709 -11.8682 -11.8460 -11.8430 -11.7151 -11.7147
   -11.6706 -11.6690 -11.6639 -11.6634 -11.6170 -11.6166 -11.5059 -11.5059
     3.4337   3.4345   4.6330   4.6339   6.8013   6.8017   7.7766   7.7768
     7.9547   7.9559   8.1140   8.1154   8.6995   8.6996   9.2614   9.2617
     9.4256   9.4260   9.8591   9.8593  10.0330  10.0334  10.7168  10.7169

          k = 0.2500-0.2500 0.0000 (  6016 PWs)   bands (ev):

   -35.2969 -35.2969 -35.2682 -35.2682 -35.2610 -35.2610 -35.2520 -35.2520
   -16.0636 -16.0616 -16.0483 -16.0461 -16.0332 -16.0330 -15.9212 -15.9208
   -11.9043 -11.9024 -11.8879 -11.8858 -11.8318 -11.8312 -11.7102 -11.7084
   -11.6819 -11.6808 -11.6585 -11.6579 -11.6172 -11.6166 -11.5066 -11.5065
     3.3590   3.3594   4.8569   4.8570   6.6084   6.6086   7.6606   7.6607
     7.9758   7.9760   8.1843   8.1847   8.7412   8.7413   9.2639   9.2648
     9.3844   9.3852   9.9336   9.9337   9.9796   9.9798  10.7273  10.7274

          k =-0.2500-0.2500 0.0000 (  6016 PWs)   bands (ev):

   -35.2968 -35.2968 -35.2686 -35.2686 -35.2608 -35.2608 -35.2519 -35.2519
   -16.0633 -16.0619 -16.0457 -16.0453 -16.0358 -16.0343 -15.9210 -15.9205
   -11.9034 -11.9015 -11.8859 -11.8837 -11.8363 -11.8357 -11.7101 -11.7081
   -11.6860 -11.6848 -11.6539 -11.6532 -11.6155 -11.6149 -11.5075 -11.5074
     3.3557   3.3561   4.8562   4.8563   6.6105   6.6106   7.6618   7.6620
     7.9678   7.9680   8.1955   8.1960   8.7407   8.7407   9.2723   9.2732
     9.3893   9.3901   9.9359   9.9360   9.9811   9.9813  10.7219  10.7220

          k = 0.2500 0.0000 0.5000 (  6018 PWs)   bands (ev):

   -35.2853 -35.2853 -35.2760 -35.2760 -35.2633 -35.2633 -35.2534 -35.2534
   -16.0562 -16.0561 -16.0470 -16.0469 -15.9865 -15.9864 -15.9769 -15.9768
   -11.8932 -11.8931 -11.8525 -11.8525 -11.7728 -11.7726 -11.7407 -11.7405
   -11.7133 -11.7132 -11.6838 -11.6837 -11.5873 -11.5872 -11.5661 -11.5660
     4.0762   4.0766   4.1095   4.1099   7.3487   7.3488   7.4076   7.4078
     8.6326   8.6327   8.6821   8.6821   8.9898   8.9904   8.9930   8.9936
     9.3002   9.3002   9.3037   9.3038  10.1631  10.1633  10.1787  10.1789

          k =-0.5000-0.2500 0.0000 (  6018 PWs)   bands (ev):

   -35.2836 -35.2836 -35.2793 -35.2793 -35.2602 -35.2602 -35.2550 -35.2550
   -16.0543 -16.0536 -16.0503 -16.0495 -15.9853 -15.9843 -15.9780 -15.9772
   -11.8888 -11.8887 -11.8667 -11.8664 -11.7605 -11.7601 -11.7420 -11.7415
   -11.7025 -11.7019 -11.6950 -11.6944 -11.5793 -11.5790 -11.5760 -11.5758
     3.6035   3.6037   4.9071   4.9073   6.5900   6.5902   7.7264   7.7264
     8.5112   8.5114   8.7519   8.7520   8.8200   8.8204   9.1780   9.1781
     9.3368   9.3369   9.3806   9.3809  10.1706  10.1707  10.1994  10.1995

          k = 0.0000-0.5000 0.2500 (  6018 PWs)   bands (ev):

   -35.2859 -35.2859 -35.2744 -35.2744 -35.2648 -35.2648 -35.2529 -35.2529
   -16.0584 -16.0549 -16.0481 -16.0446 -15.9893 -15.9863 -15.9771 -15.9739
   -11.8869 -11.8828 -11.8722 -11.8671 -11.7631 -11.7619 -11.7415 -11.7396
   -11.7037 -11.6991 -11.6970 -11.6935 -11.5809 -11.5803 -11.5747 -11.5742
     3.7099   3.7110   4.6708   4.6719   6.5908   6.5908   8.1411   8.1416
     8.5214   8.5215   8.6854   8.6857   8.8189   8.8190   9.0863   9.0863
     9.2010   9.2010   9.3762   9.3762  10.1643  10.1650  10.2202  10.2211

          k = 0.2500-0.5000 0.0000 (  6018 PWs)   bands (ev):

   -35.2859 -35.2859 -35.2744 -35.2744 -35.2648 -35.2648 -35.2529 -35.2529
   -16.0586 -16.0548 -16.0485 -16.0444 -15.9891 -15.9863 -15.9770 -15.9739
   -11.8904 -11.8873 -11.8686 -11.8644 -11.7614 -11.7591 -11.7422 -11.7401
   -11.7050 -11.7003 -11.6967 -11.6931 -11.5809 -11.5803 -11.5745 -11.5743
     3.6034   3.6038   4.9070   4.9072   6.5901   6.5902   7.7263   7.7267
     8.5111   8.5114   8.7516   8.7521   8.8200   8.8204   9.1779   9.1781
     9.3369   9.3370   9.3805   9.3809  10.1695  10.1716  10.1985  10.2006

          k =-0.5000 0.0000 0.2500 (  6018 PWs)   bands (ev):

   -35.2836 -35.2836 -35.2793 -35.2793 -35.2602 -35.2602 -35.2550 -35.2550
   -16.0541 -16.0534 -16.0507 -16.0494 -15.9856 -15.9842 -15.9781 -15.9772
   -11.8861 -11.8837 -11.8711 -11.8682 -11.7649 -11.7594 -11.7415 -11.7399
   -11.7017 -11.7009 -11.6971 -11.6942 -11.5797 -11.5783 -11.5769 -11.5750
     3.7101   3.7108   4.6710   4.6718   6.5907   6.5908   8.1412   8.1412
     8.5211   8.5220   8.6852   8.6858   8.8185   8.8195   9.0862   9.0864
     9.2010   9.2011   9.3760   9.3765  10.1644  10.1645  10.2206  10.2207

          k =-0.5000 0.0000 0.5000 (  6024 PWs)   bands (ev):

   -35.2799 -35.2799 -35.2708 -35.2708 -35.2687 -35.2687 -35.2586 -35.2586
   -16.0285 -16.0285 -16.0209 -16.0209 -16.0150 -16.0150 -16.0065 -16.0065
   -11.8607 -11.8607 -11.8528 -11.8528 -11.8118 -11.8118 -11.8037 -11.8037
   -11.6409 -11.6409 -11.6310 -11.6310 -11.6108 -11.6108 -11.6012 -11.6012
     4.1631   4.1631   4.1903   4.1903   7.5178   7.5178   7.5179   7.5179
     8.6052   8.6052   8.6078   8.6078   9.3342   9.3342   9.3348   9.3348
     9.5457   9.5457   9.5458   9.5458   9.6127   9.6127   9.6137   9.6137

          k =-0.5000 0.5000 0.0000 (  6024 PWs)   bands (ev):

   -35.2799 -35.2799 -35.2709 -35.2709 -35.2686 -35.2686 -35.2586 -35.2586
   -16.0299 -16.0299 -16.0203 -16.0203 -16.0148 -16.0148 -16.0060 -16.0060
   -11.8751 -11.8751 -11.8324 -11.8324 -11.8184 -11.8184 -11.8032 -11.8032
   -11.6413 -11.6413 -11.6284 -11.6284 -11.6112 -11.6112 -11.6028 -11.6028
     3.6897   3.6897   4.9216   4.9216   7.4724   7.4724   7.5644   7.5644
     7.5666   7.5666   9.3138   9.3138   9.3652   9.3652   9.3816   9.3816
     9.4345   9.4345   9.5546   9.5546   9.6400   9.6400   9.6519   9.6519

          k =-0.2500-0.2500 0.2500 (  6007 PWs)   bands (ev):

   -35.2916 -35.2916 -35.2693 -35.2693 -35.2630 -35.2630 -35.2541 -35.2541
   -16.0498 -16.0486 -16.0439 -16.0404 -16.0371 -16.0325 -15.9427 -15.9422
   -11.9017 -11.9005 -11.8807 -11.8789 -11.8493 -11.8476 -11.6939 -11.6927
   -11.6736 -11.6723 -11.6558 -11.6544 -11.6413 -11.6403 -11.5059 -11.5059
     3.5687   3.5697   4.6134   4.6142   6.8241   6.8245   7.8546   7.8547
     8.1306   8.1312   8.4366   8.4371   8.8312   8.8314   9.2695   9.2700
     9.3590   9.3593   9.7720   9.7721   9.9357   9.9359  10.7176  10.7177

          k =-0.2500 0.2500-0.2500 (  6007 PWs)   bands (ev):

   -35.2918 -35.2918 -35.2690 -35.2690 -35.2630 -35.2630 -35.2543 -35.2543
   -16.0519 -16.0496 -16.0439 -16.0403 -16.0346 -16.0315 -15.9429 -15.9425
   -11.9047 -11.9037 -11.8806 -11.8790 -11.8454 -11.8438 -11.6934 -11.6921
   -11.6701 -11.6685 -11.6574 -11.6563 -11.6452 -11.6443 -11.5053 -11.5052
     3.5707   3.5717   4.6085   4.6094   6.8325   6.8328   7.8531   7.8532
     8.1319   8.1324   8.4288   8.4293   8.8320   8.8322   9.2673   9.2678
     9.3635   9.3638   9.7716   9.7717   9.9340   9.9342  10.7173  10.7176

          k = 0.2500-0.2500-0.2500 (  6007 PWs)   bands (ev):

   -35.2917 -35.2917 -35.2690 -35.2690 -35.2630 -35.2630 -35.2543 -35.2543
   -16.0519 -16.0495 -16.0438 -16.0404 -16.0345 -16.0315 -15.9430 -15.9426
   -11.9044 -11.9035 -11.8802 -11.8787 -11.8453 -11.8438 -11.6937 -11.6924
   -11.6702 -11.6687 -11.6576 -11.6563 -11.6453 -11.6444 -11.5053 -11.5052
     3.5735   3.5741   4.6116   4.6126   6.8260   6.8265   7.8539   7.8539
     8.1282   8.1292   8.4270   8.4278   8.8312   8.8315   9.2656   9.2662
     9.3565   9.3568   9.7727   9.7728   9.9341   9.9343  10.7194  10.7196

          k =-0.2500 0.2500 0.5000 (  6004 PWs)   bands (ev):

   -35.2832 -35.2832 -35.2736 -35.2736 -35.2654 -35.2654 -35.2558 -35.2558
   -16.0498 -16.0496 -16.0371 -16.0368 -15.9978 -15.9973 -15.9892 -15.9888
   -11.9119 -11.9118 -11.8611 -11.8605 -11.8230 -11.8219 -11.7849 -11.7847
   -11.6636 -11.6626 -11.6344 -11.6343 -11.5752 -11.5747 -11.5489 -11.5487
     4.0330   4.0332   4.1382   4.1385   7.0504   7.0505   8.0279   8.0344
     8.1273   8.1340   8.9442   8.9480   8.9773   8.9807   9.0711   9.0717
     9.4232   9.4234   9.9275   9.9277  10.2390  10.2422  10.2448  10.2479

          k =-0.5000-0.2500 0.2500 (  6004 PWs)   bands (ev):

   -35.2818 -35.2818 -35.2765 -35.2765 -35.2629 -35.2629 -35.2566 -35.2566
   -16.0464 -16.0453 -16.0431 -16.0411 -15.9969 -15.9948 -15.9901 -15.9888
   -11.9012 -11.8986 -11.8876 -11.8852 -11.8047 -11.8012 -11.7913 -11.7895
   -11.6527 -11.6513 -11.6486 -11.6470 -11.5623 -11.5616 -11.5601 -11.5588
     3.7223   3.7231   4.5797   4.5805   6.9108   6.9111   7.6171   7.6172
     8.5246   8.5250   8.8928   8.8931   9.0072   9.0073   9.2169   9.2173
     9.4916   9.4921   9.6579   9.6585  10.2791  10.2792  10.2972  10.2975

          k = 0.5000-0.2500-0.2500 (  6004 PWs)   bands (ev):

   -35.2818 -35.2818 -35.2765 -35.2765 -35.2629 -35.2629 -35.2566 -35.2566
   -16.0464 -16.0453 -16.0429 -16.0412 -15.9968 -15.9949 -15.9901 -15.9889
   -11.9011 -11.8988 -11.8875 -11.8853 -11.8048 -11.8013 -11.7912 -11.7895
   -11.6527 -11.6512 -11.6487 -11.6470 -11.5625 -11.5616 -11.5600 -11.5588
     3.7224   3.7230   4.5798   4.5804   6.9111   6.9111   7.6171   7.6172
     8.5245   8.5249   8.8928   8.8929   9.0073   9.0075   9.2168   9.2171
     9.4915   9.4919   9.6580   9.6581  10.2789  10.2789  10.2975  10.2975

          k =-0.2500-0.5000 0.2500 (  6004 PWs)   bands (ev):

   -35.2834 -35.2834 -35.2720 -35.2720 -35.2672 -35.2672 -35.2552 -35.2552
   -16.0503 -16.0466 -16.0403 -16.0364 -16.0005 -15.9976 -15.9890 -15.9857
   -11.9016 -11.8979 -11.8882 -11.8840 -11.8050 -11.8017 -11.7921 -11.7886
   -11.6545 -11.6505 -11.6486 -11.6461 -11.5639 -11.5634 -11.5581 -11.5579
     3.7232   3.7241   4.5822   4.5830   6.9063   6.9068   7.6154   7.6157
     8.5241   8.5244   8.8932   8.8936   9.0062   9.0066   9.2126   9.2130
     9.4931   9.4936   9.6593   9.6598  10.2804  10.2811  10.2967  10.2976

          k =-0.2500 0.5000-0.2500 (  6004 PWs)   bands (ev):

   -35.2834 -35.2834 -35.2721 -35.2721 -35.2672 -35.2672 -35.2552 -35.2552
   -16.0503 -16.0468 -16.0403 -16.0366 -16.0003 -15.9976 -15.9889 -15.9857
   -11.9020 -11.8982 -11.8887 -11.8844 -11.8046 -11.8014 -11.7920 -11.7885
   -11.6545 -11.6504 -11.6484 -11.6458 -11.5637 -11.5634 -11.5581 -11.5578
     3.7213   3.7222   4.5772   4.5780   6.9152   6.9158   7.6187   7.6190
     8.5250   8.5253   8.8923   8.8927   9.0081   9.0085   9.2209   9.2213
     9.4899   9.4903   9.6567   9.6572  10.2770  10.2776  10.2973  10.2981

          k =-0.5000 0.2500 0.5000 (  6000 PWs)   bands (ev):

   -35.2798 -35.2798 -35.2708 -35.2708 -35.2686 -35.2686 -35.2586 -35.2586
   -16.0312 -16.0312 -16.0239 -16.0235 -16.0170 -16.0167 -16.0085 -16.0084
   -11.8977 -11.8970 -11.8916 -11.8910 -11.8470 -11.8466 -11.8405 -11.8398
   -11.5973 -11.5965 -11.5888 -11.5882 -11.5702 -11.5695 -11.5621 -11.5615
     4.0577   4.0579   4.0840   4.0842   7.3239   7.3239   7.3252   7.3252
     8.7408   8.7421   8.7442   8.7446   9.4592   9.4593   9.4680   9.4681
     9.9018   9.9025   9.9077   9.9081  10.2128  10.2128  10.2192  10.2194

          k =-0.5000 0.5000 0.2500 (  6000 PWs)   bands (ev):

   -35.2798 -35.2798 -35.2708 -35.2708 -35.2686 -35.2686 -35.2585 -35.2585
   -16.0325 -16.0311 -16.0251 -16.0206 -16.0192 -16.0153 -16.0087 -16.0078
   -11.9069 -11.9033 -11.8845 -11.8809 -11.8488 -11.8467 -11.8416 -11.8387
   -11.5973 -11.5954 -11.5890 -11.5877 -11.5702 -11.5696 -11.5626 -11.5622
     3.7343   3.7349   4.5018   4.5025   7.3346   7.3347   7.3381   7.3382
     8.0943   8.0949   9.2342   9.2344   9.4662   9.4663   9.4763   9.4765
     9.8070   9.8072   9.9885   9.9896  10.2240  10.2242  10.2290  10.2292

     the Fermi energy is     9.1265 ev

!    total energy              =   -2240.90797980 Ry
     Harris-Foulkes estimate   =   -2240.90797992 Ry
     estimated scf accuracy    <       0.00000015 Ry

     total all-electron energy =    -90245.251383 Ry

     The total energy is the sum of the following terms:

     one-electron contribution =     -61.59638566 Ry
     hartree contribution      =      46.79507239 Ry
     xc contribution           =    -252.50592924 Ry
     ewald contribution        =    -225.54334057 Ry
     one-center paw contrib.   =   -1748.05334448 Ry
     smearing contrib. (-TS)   =      -0.00405224 Ry

     convergence has been achieved in   8 iterations

     Forces acting on atoms (cartesian axes, Ry/au):

     atom    1 type  1   force =     0.01972945   -0.01939618    0.00092791
     atom    2 type  1   force =     0.02090441    0.02116383    0.00080353
     atom    3 type  1   force =    -0.02036444   -0.02003528    0.00022513
     atom    4 type  1   force =    -0.02040372    0.02066161    0.00020792
     atom    5 type  2   force =     0.00014522   -0.00232997   -0.00233360
     atom    6 type  2   force =    -0.00001092   -0.00006401    0.00016910

     Total force =     0.057639     Total SCF correction =     0.000507


     Computing stress (Cartesian axis) and pressure

     Message from routine stres:
     noncollinear stress + GGA not implemented

     BFGS Geometry Optimization

     number of scf cycles    =   1
     number of bfgs steps    =   0

     enthalpy new            =   -2240.9079798021 Ry

     new trust radius        =       0.0297581551 bohr
     new conv_thr            =       0.0000010000 Ry

     new unit-cell volume =   1006.37882 a.u.^3 (   149.12995 Ang^3 )
     density =      7.02626 g/cm^3

CELL_PARAMETERS (angstrom)
   5.303000000   0.000000000   0.000000000
   0.000000000   5.303000000   0.000000000
   0.000000000   0.000000000   5.303000000

ATOMIC_POSITIONS (crystal)
Gd       0.001968768  -0.001935511   0.000092594
Gd       0.002086015   0.502111902   0.500080183
Gd       0.497967868  -0.001999286   0.500022465
Gd       0.497963948   0.502061787   0.000020748
H        0.250014491   0.753667496   0.753667134
H        0.249998910   0.750093612   0.250016874



     Writing output data file 2302.save
     NEW-OLD atomic charge density approx. for the potential

     Check: negative/imaginary core charge=   -0.000002    0.000000

     total cpu time spent up to now is       78.3 secs

     per-process dynamical memory:   149.6 Mb

     Self-consistent Calculation

     iteration #  1     ecut=    50.00 Ry     beta=0.70
     Davidson diagonalization with overlap
     ethr =  1.00E-06,  avg # of iterations =  5.0

     total cpu time spent up to now is       93.7 secs

     total energy              =   -2240.91072490 Ry
     Harris-Foulkes estimate   =   -2240.91443028 Ry
     estimated scf accuracy    <       0.00069655 Ry

     iteration #  2     ecut=    50.00 Ry     beta=0.70
     Davidson diagonalization with overlap
     ethr =  1.51E-06,  avg # of iterations =  3.0

     total cpu time spent up to now is      101.8 secs

     total energy              =   -2240.91078841 Ry
     Harris-Foulkes estimate   =   -2240.91137817 Ry
     estimated scf accuracy    <       0.00148636 Ry

     iteration #  3     ecut=    50.00 Ry     beta=0.70
     Davidson diagonalization with overlap
     ethr =  1.51E-06,  avg # of iterations =  2.3

     total cpu time spent up to now is      110.8 secs

     total energy              =   -2240.91102508 Ry
     Harris-Foulkes estimate   =   -2240.91103746 Ry
     estimated scf accuracy    <       0.00000213 Ry

     iteration #  4     ecut=    50.00 Ry     beta=0.70
     Davidson diagonalization with overlap
     ethr =  4.62E-09,  avg # of iterations =  4.2

     total cpu time spent up to now is      122.0 secs

     End of self-consistent calculation

          k = 0.0000 0.0000 0.0000 (  6031 PWs)   bands (ev):

   -35.3110 -35.3110 -35.2625 -35.2625 -35.2566 -35.2566 -35.2492 -35.2492
   -16.0754 -16.0754 -16.0667 -16.0667 -16.0574 -16.0574 -15.8662 -15.8662
   -11.9633 -11.9633 -11.9313 -11.9313 -11.8902 -11.8902 -11.6983 -11.6983
   -11.6799 -11.6799 -11.6686 -11.6686 -11.4694 -11.4694 -11.4637 -11.4637
     2.8244   2.8244   4.6520   4.6520   6.7065   6.7065   7.3422   7.3422
     7.3464   7.3464   7.3492   7.3492   8.2512   8.2512   9.4602   9.4602
    10.1582  10.1582  10.4833  10.4833  10.4908  10.4908  10.6633  10.6633

          k = 0.0000 0.0000 0.2500 (  6023 PWs)   bands (ev):

   -35.3033 -35.3033 -35.2668 -35.2668 -35.2586 -35.2586 -35.2506 -35.2506
   -16.0724 -16.0722 -16.0616 -16.0601 -16.0377 -16.0360 -15.8962 -15.8959
   -11.9362 -11.9360 -11.8852 -11.8836 -11.8615 -11.8592 -11.7276 -11.7264
   -11.6974 -11.6968 -11.6496 -11.6495 -11.5420 -11.5419 -11.4955 -11.4955
     3.1761   3.1768   4.5304   4.5314   6.8952   6.8963   7.3829   7.3830
     7.7542   7.7544   7.7567   7.7575   8.5495   8.5495   9.2322   9.2324
     9.7633   9.7639  10.1874  10.1885  10.5290  10.5291  10.7493  10.7494

          k = 0.0000 0.0000-0.5000 (  5942 PWs)   bands (ev):

   -35.2882 -35.2882 -35.2805 -35.2805 -35.2594 -35.2594 -35.2512 -35.2512
   -16.0691 -16.0691 -16.0625 -16.0625 -15.9709 -15.9709 -15.9638 -15.9638
   -11.8814 -11.8814 -11.8764 -11.8764 -11.7519 -11.7519 -11.7458 -11.7458
   -11.7138 -11.7138 -11.7076 -11.7076 -11.5745 -11.5745 -11.5678 -11.5678
     3.9518   3.9518   3.9810   3.9810   7.2405   7.2405   7.2516   7.2516
     8.3579   8.3579   8.3591   8.3591   9.1780   9.1780   9.1790   9.1790
     9.3952   9.3952   9.3965   9.3965  10.5763  10.5763  10.5810  10.5810

          k = 0.0000 0.2500 0.2500 (  6016 PWs)   bands (ev):

   -35.2970 -35.2970 -35.2665 -35.2665 -35.2632 -35.2632 -35.2526 -35.2526
   -16.0653 -16.0640 -16.0446 -16.0427 -16.0401 -16.0371 -15.9218 -15.9214
   -11.9151 -11.9145 -11.8754 -11.8752 -11.8422 -11.8411 -11.7190 -11.7174
   -11.6712 -11.6709 -11.6642 -11.6636 -11.6164 -11.6160 -11.5063 -11.5063
     3.4010   3.4016   4.5631   4.5642   6.7953   6.7962   7.7686   7.7688
     7.9431   7.9438   8.1119   8.1120   8.7025   8.7025   9.2816   9.2818
     9.4569   9.4573   9.8572   9.8574  10.0325  10.0326  10.7178  10.7179

          k = 0.0000 0.2500-0.5000 (  6018 PWs)   bands (ev):

   -35.2846 -35.2846 -35.2770 -35.2770 -35.2629 -35.2629 -35.2547 -35.2547
   -16.0571 -16.0567 -16.0491 -16.0487 -15.9870 -15.9865 -15.9787 -15.9782
   -11.8989 -11.8986 -11.8553 -11.8552 -11.7792 -11.7766 -11.7415 -11.7401
   -11.7148 -11.7113 -11.6830 -11.6819 -11.5895 -11.5888 -11.5655 -11.5650
     4.0282   4.0289   4.0594   4.0603   7.3374   7.3376   7.3940   7.3951
     8.6253   8.6268   8.6736   8.6741   9.0082   9.0085   9.0106   9.0108
     9.3112   9.3113   9.3142   9.3144  10.1669  10.1670  10.1819  10.1821

          k = 0.0000-0.5000-0.5000 (  6024 PWs)   bands (ev):

   -35.2789 -35.2789 -35.2716 -35.2716 -35.2685 -35.2685 -35.2601 -35.2601
   -16.0297 -16.0297 -16.0236 -16.0236 -16.0147 -16.0147 -16.0076 -16.0076
   -11.8641 -11.8641 -11.8636 -11.8636 -11.8067 -11.8067 -11.8063 -11.8063
   -11.6392 -11.6392 -11.6375 -11.6375 -11.6048 -11.6048 -11.6039 -11.6039
     4.1096   4.1096   4.1348   4.1348   7.5239   7.5239   7.5247   7.5247
     8.5955   8.5955   8.5978   8.5978   9.3688   9.3688   9.3696   9.3696
     9.5220   9.5220   9.5222   9.5222   9.6274   9.6274   9.6283   9.6283

          k = 0.2500 0.2500 0.2500 (  6007 PWs)   bands (ev):

   -35.2916 -35.2916 -35.2689 -35.2689 -35.2632 -35.2632 -35.2554 -35.2554
   -16.0509 -16.0497 -16.0455 -16.0418 -16.0386 -16.0338 -15.9433 -15.9429
   -11.9091 -11.9078 -11.8861 -11.8842 -11.8463 -11.8445 -11.7007 -11.6993
   -11.6701 -11.6692 -11.6577 -11.6556 -11.6403 -11.6382 -11.5064 -11.5063
     3.5292   3.5298   4.5393   4.5402   6.8302   6.8307   7.8549   7.8549
     8.1271   8.1280   8.4310   8.4318   8.8343   8.8345   9.2824   9.2830
     9.4007   9.4011   9.7715   9.7716   9.9376   9.9378  10.7116  10.7118

          k = 0.2500 0.2500-0.5000 (  6004 PWs)   bands (ev):

   -35.2820 -35.2820 -35.2748 -35.2748 -35.2654 -35.2654 -35.2568 -35.2568
   -16.0487 -16.0482 -16.0414 -16.0408 -16.0003 -15.9998 -15.9885 -15.9882
   -11.9150 -11.9148 -11.8671 -11.8662 -11.8282 -11.8268 -11.7826 -11.7823
   -11.6684 -11.6672 -11.6304 -11.6299 -11.5741 -11.5736 -11.5511 -11.5508
     3.9560   3.9564   4.1107   4.1107   7.0452   7.0453   8.0303   8.0365
     8.1270   8.1333   8.9612   8.9647   8.9894   8.9926   9.0542   9.0550
     9.4620   9.4622   9.9317   9.9318  10.2337  10.2358  10.2398  10.2418

          k = 0.2500-0.5000-0.5000 (  6000 PWs)   bands (ev):

   -35.2788 -35.2788 -35.2715 -35.2715 -35.2686 -35.2686 -35.2601 -35.2601
   -16.0321 -16.0321 -16.0259 -16.0258 -16.0171 -16.0170 -16.0099 -16.0098
   -11.9025 -11.9023 -11.8982 -11.8981 -11.8452 -11.8451 -11.8402 -11.8401
   -11.5987 -11.5985 -11.5924 -11.5922 -11.5677 -11.5676 -11.5616 -11.5615
     4.0061   4.0063   4.0306   4.0307   7.3277   7.3278   7.3282   7.3282
     8.7496   8.7500   8.7534   8.7538   9.4668   9.4668   9.4763   9.4764
     9.8936   9.8942   9.9024   9.9031  10.2149  10.2150  10.2212  10.2213

          k =-0.5000-0.5000-0.5000 (  6008 PWs)   bands (ev):

   -35.2787 -35.2787 -35.2714 -35.2714 -35.2686 -35.2686 -35.2601 -35.2601
   -16.0344 -16.0344 -16.0282 -16.0282 -16.0193 -16.0193 -16.0121 -16.0121
   -11.9308 -11.9308 -11.9264 -11.9264 -11.8729 -11.8729 -11.8677 -11.8677
   -11.5647 -11.5647 -11.5579 -11.5579 -11.5360 -11.5360 -11.5296 -11.5296
     3.9097   3.9097   3.9336   3.9336   7.1480   7.1480   7.1488   7.1488
     8.9570   8.9570   8.9616   8.9616   9.8476   9.8476   9.8489   9.8489
    10.2922  10.2922  10.2930  10.2930  10.4084  10.4084  10.4098  10.4098

          k = 0.2500 0.0000 0.0000 (  6023 PWs)   bands (ev):

   -35.3033 -35.3033 -35.2677 -35.2677 -35.2566 -35.2566 -35.2517 -35.2517
   -16.0689 -16.0679 -16.0663 -16.0662 -16.0361 -16.0349 -15.8960 -15.8957
   -11.9274 -11.9267 -11.9096 -11.9090 -11.8456 -11.8447 -11.7159 -11.7155
   -11.7088 -11.7079 -11.6489 -11.6489 -11.5381 -11.5378 -11.4996 -11.4995
     3.1158   3.1161   4.7270   4.7271   6.5383   6.5385   7.5902   7.5912
     7.7499   7.7505   7.7545   7.7564   8.5203   8.5203   9.4240   9.4241
     9.5860   9.5868  10.2046  10.2055  10.5239  10.5241  10.7543  10.7546

          k = 0.0000 0.2500 0.0000 (  6023 PWs)   bands (ev):

   -35.3035 -35.3035 -35.2655 -35.2655 -35.2603 -35.2603 -35.2500 -35.2500
   -16.0717 -16.0714 -16.0626 -16.0622 -16.0364 -16.0362 -15.8959 -15.8958
   -11.9273 -11.9272 -11.9092 -11.9089 -11.8452 -11.8451 -11.7165 -11.7162
   -11.7076 -11.7075 -11.6491 -11.6491 -11.5381 -11.5380 -11.4995 -11.4995
     3.1158   3.1160   4.7269   4.7271   6.5382   6.5385   7.5909   7.5910
     7.7501   7.7504   7.7552   7.7553   8.5203   8.5203   9.4239   9.4240
     9.5862   9.5868  10.2049  10.2054  10.5240  10.5241  10.7545  10.7545

          k =-0.5000 0.0000 0.0000 (  5942 PWs)   bands (ev):

   -35.2872 -35.2872 -35.2824 -35.2824 -35.2565 -35.2565 -35.2531 -35.2531
   -16.0665 -16.0665 -16.0657 -16.0657 -15.9749 -15.9749 -15.9592 -15.9592
   -11.8867 -11.8867 -11.8775 -11.8775 -11.7524 -11.7524 -11.7478 -11.7478
   -11.7168 -11.7168 -11.6864 -11.6864 -11.5823 -11.5823 -11.5693 -11.5693
     3.4815   3.4815   4.8077   4.8077   6.2325   6.2325   7.9160   7.9160
     8.3531   8.3531   8.3568   8.3568   9.1101   9.1101   9.2523   9.2523
     9.3626   9.3626   9.3838   9.3838  10.5756  10.5756  10.6049  10.6049

          k = 0.0000-0.5000 0.0000 (  5942 PWs)   bands (ev):

   -35.2896 -35.2896 -35.2782 -35.2782 -35.2612 -35.2612 -35.2503 -35.2503
   -16.0705 -16.0705 -16.0612 -16.0612 -15.9765 -15.9765 -15.9581 -15.9581
   -11.8881 -11.8881 -11.8761 -11.8761 -11.7543 -11.7543 -11.7452 -11.7452
   -11.7177 -11.7177 -11.6862 -11.6862 -11.5839 -11.5839 -11.5678 -11.5678
     3.4815   3.4815   4.8075   4.8075   6.2326   6.2326   7.9162   7.9162
     8.3532   8.3532   8.3565   8.3565   9.1100   9.1100   9.2524   9.2524
     9.3624   9.3624   9.3838   9.3838  10.5754  10.5754  10.6053  10.6053

          k = 0.0000-0.2500 0.2500 (  6016 PWs)   bands (ev):

   -35.2970 -35.2970 -35.2665 -35.2665 -35.2632 -35.2632 -35.2526 -35.2526
   -16.0653 -16.0641 -16.0446 -16.0427 -16.0400 -16.0372 -15.9219 -15.9214
   -11.9150 -11.9146 -11.8756 -11.8749 -11.8422 -11.8410 -11.7194 -11.7171
   -11.6710 -11.6709 -11.6641 -11.6637 -11.6163 -11.6161 -11.5064 -11.5063
     3.4008   3.4018   4.5633   4.5640   6.7958   6.7961   7.7684   7.7686
     7.9432   7.9437   8.1118   8.1119   8.7025   8.7026   9.2817   9.2817
     9.4571   9.4573   9.8572   9.8573  10.0325  10.0326  10.7178  10.7179

          k = 0.2500 0.0000-0.2500 (  6016 PWs)   bands (ev):

   -35.2968 -35.2968 -35.2686 -35.2686 -35.2602 -35.2602 -35.2536 -35.2536
   -16.0640 -16.0639 -16.0486 -16.0435 -16.0393 -16.0343 -15.9219 -15.9215
   -11.9152 -11.9143 -11.8765 -11.8737 -11.8431 -11.8399 -11.7188 -11.7182
   -11.6736 -11.6687 -11.6650 -11.6622 -11.6167 -11.6162 -11.5064 -11.5063
     3.4023   3.4030   4.5641   4.5651   6.7939   6.7943   7.7690   7.7692
     7.9422   7.9432   8.1098   8.1111   8.7025   8.7026   9.2780   9.2782
     9.4532   9.4536   9.8572   9.8574  10.0327  10.0331  10.7198  10.7198

          k =-0.2500 0.0000-0.2500 (  6016 PWs)   bands (ev):

   -35.2969 -35.2969 -35.2686 -35.2686 -35.2602 -35.2602 -35.2536 -35.2536
   -16.0640 -16.0638 -16.0486 -16.0437 -16.0393 -16.0344 -15.9218 -15.9214
   -11.9153 -11.9144 -11.8769 -11.8741 -11.8433 -11.8401 -11.7185 -11.7179
   -11.6737 -11.6686 -11.6649 -11.6619 -11.6165 -11.6160 -11.5064 -11.5063
     3.3996   3.4003   4.5623   4.5632   6.7975   6.7980   7.7680   7.7683
     7.9432   7.9442   8.1130   8.1142   8.7025   8.7026   9.2851   9.2853
     9.4607   9.4611   9.8571   9.8573  10.0321  10.0325  10.7156  10.7157

          k = 0.2500-0.2500 0.0000 (  6016 PWs)   bands (ev):

   -35.2970 -35.2970 -35.2676 -35.2676 -35.2615 -35.2615 -35.2531 -35.2531
   -16.0648 -16.0628 -16.0495 -16.0475 -16.0348 -16.0345 -15.9217 -15.9213
   -11.9121 -11.9104 -11.8903 -11.8884 -11.8306 -11.8298 -11.7134 -11.7109
   -11.6857 -11.6842 -11.6567 -11.6564 -11.6161 -11.6157 -11.5072 -11.5071
     3.3256   3.3259   4.7741   4.7742   6.6116   6.6118   7.6599   7.6600
     7.9669   7.9671   8.1808   8.1812   8.7441   8.7441   9.2789   9.2796
     9.4229   9.4235   9.9367   9.9367   9.9795   9.9797  10.7230  10.7231

          k =-0.2500-0.2500 0.0000 (  6016 PWs)   bands (ev):

   -35.2969 -35.2969 -35.2680 -35.2680 -35.2613 -35.2613 -35.2530 -35.2530
   -16.0645 -16.0630 -16.0475 -16.0468 -16.0369 -16.0357 -15.9215 -15.9211
   -11.9114 -11.9096 -11.8890 -11.8869 -11.8342 -11.8334 -11.7136 -11.7108
   -11.6885 -11.6867 -11.6530 -11.6525 -11.6147 -11.6142 -11.5081 -11.5079
     3.3225   3.3228   4.7735   4.7736   6.6135   6.6137   7.6616   7.6617
     7.9596   7.9598   8.1913   8.1917   8.7436   8.7436   9.2865   9.2871
     9.4278   9.4284   9.9384   9.9385   9.9806   9.9808  10.7174  10.7175

          k = 0.2500 0.0000 0.5000 (  6018 PWs)   bands (ev):

   -35.2846 -35.2846 -35.2770 -35.2770 -35.2629 -35.2629 -35.2547 -35.2547
   -16.0570 -16.0569 -16.0490 -16.0489 -15.9868 -15.9867 -15.9785 -15.9784
   -11.8989 -11.8988 -11.8553 -11.8553 -11.7777 -11.7776 -11.7407 -11.7405
   -11.7132 -11.7132 -11.6829 -11.6827 -11.5891 -11.5891 -11.5652 -11.5652
     4.0283   4.0287   4.0597   4.0601   7.3374   7.3375   7.3947   7.3948
     8.6260   8.6260   8.6738   8.6739   9.0077   9.0082   9.0106   9.0111
     9.3114   9.3115   9.3144   9.3145  10.1663  10.1664  10.1823  10.1824

          k =-0.5000-0.2500 0.0000 (  6018 PWs)   bands (ev):

   -35.2837 -35.2837 -35.2789 -35.2789 -35.2604 -35.2604 -35.2561 -35.2561
   -16.0557 -16.0554 -16.0512 -16.0508 -15.9894 -15.9890 -15.9754 -15.9751
   -11.8971 -11.8969 -11.8676 -11.8672 -11.7646 -11.7643 -11.7409 -11.7407
   -11.7053 -11.7047 -11.6929 -11.6924 -11.5806 -11.5804 -11.5751 -11.5750
     3.5655   3.5657   4.8224   4.8226   6.6009   6.6010   7.7204   7.7204
     8.5205   8.5207   8.7485   8.7487   8.8142   8.8146   9.2127   9.2127
     9.3345   9.3345   9.3922   9.3925  10.1341  10.1342  10.2353  10.2353

          k = 0.0000-0.5000 0.2500 (  6018 PWs)   bands (ev):

   -35.2857 -35.2857 -35.2746 -35.2746 -35.2649 -35.2649 -35.2540 -35.2540
   -16.0595 -16.0558 -16.0498 -16.0460 -15.9922 -15.9900 -15.9756 -15.9731
   -11.8944 -11.8909 -11.8739 -11.8689 -11.7670 -11.7667 -11.7397 -11.7384
   -11.7061 -11.7015 -11.6954 -11.6921 -11.5818 -11.5811 -11.5741 -11.5735
     3.6680   3.6690   4.5968   4.5977   6.6019   6.6019   8.1261   8.1265
     8.5304   8.5304   8.6715   8.6719   8.8198   8.8198   9.1000   9.1000
     9.2223   9.2224   9.3968   9.3968  10.1263  10.1266  10.2667  10.2671

          k = 0.2500-0.5000 0.0000 (  6018 PWs)   bands (ev):

   -35.2857 -35.2857 -35.2746 -35.2746 -35.2649 -35.2649 -35.2540 -35.2540
   -16.0597 -16.0555 -16.0505 -16.0461 -15.9919 -15.9900 -15.9752 -15.9731
   -11.8985 -11.8956 -11.8695 -11.8652 -11.7656 -11.7631 -11.7415 -11.7392
   -11.7077 -11.7028 -11.6946 -11.6912 -11.5816 -11.5813 -11.5743 -11.5739
     3.5654   3.5658   4.8223   4.8225   6.6009   6.6010   7.7204   7.7207
     8.5204   8.5207   8.7483   8.7488   8.8142   8.8146   9.2125   9.2126
     9.3347   9.3348   9.3921   9.3924  10.1338  10.1345  10.2349  10.2356

          k =-0.5000 0.0000 0.2500 (  6018 PWs)   bands (ev):

   -35.2836 -35.2836 -35.2789 -35.2789 -35.2605 -35.2605 -35.2562 -35.2562
   -16.0556 -16.0553 -16.0513 -16.0501 -15.9899 -15.9888 -15.9758 -15.9751
   -11.8938 -11.8915 -11.8729 -11.8700 -11.7696 -11.7637 -11.7394 -11.7387
   -11.7042 -11.7038 -11.6954 -11.6922 -11.5814 -11.5796 -11.5755 -11.5737
     3.6682   3.6688   4.5969   4.5976   6.6019   6.6020   8.1261   8.1262
     8.5300   8.5309   8.6714   8.6719   8.8193   8.8203   9.0997   9.0999
     9.2225   9.2226   9.3967   9.3971  10.1262  10.1264  10.2669  10.2670

          k =-0.5000 0.0000 0.5000 (  6024 PWs)   bands (ev):

   -35.2789 -35.2789 -35.2716 -35.2716 -35.2685 -35.2685 -35.2601 -35.2601
   -16.0298 -16.0298 -16.0234 -16.0234 -16.0149 -16.0149 -16.0076 -16.0076
   -11.8673 -11.8673 -11.8604 -11.8604 -11.8099 -11.8099 -11.8027 -11.8027
   -11.6429 -11.6429 -11.6341 -11.6341 -11.6087 -11.6087 -11.6001 -11.6001
     4.1096   4.1096   4.1348   4.1348   7.5240   7.5240   7.5248   7.5248
     8.5953   8.5953   8.5978   8.5978   9.3689   9.3689   9.3697   9.3697
     9.5218   9.5218   9.5222   9.5222   9.6274   9.6274   9.6283   9.6283

          k =-0.5000 0.5000 0.0000 (  6024 PWs)   bands (ev):

   -35.2791 -35.2791 -35.2717 -35.2717 -35.2684 -35.2684 -35.2600 -35.2600
   -16.0314 -16.0314 -16.0236 -16.0236 -16.0154 -16.0154 -16.0051 -16.0051
   -11.8845 -11.8845 -11.8329 -11.8329 -11.8231 -11.8231 -11.7993 -11.7993
   -11.6462 -11.6462 -11.6283 -11.6283 -11.6097 -11.6097 -11.6024 -11.6024
     3.6520   3.6520   4.8372   4.8372   7.4791   7.4791   7.5676   7.5676
     7.5715   7.5715   9.3535   9.3535   9.3563   9.3563   9.3839   9.3839
     9.4267   9.4267   9.5592   9.5592   9.6365   9.6365   9.6551   9.6551

          k =-0.2500-0.2500 0.2500 (  6007 PWs)   bands (ev):

   -35.2916 -35.2916 -35.2689 -35.2689 -35.2632 -35.2632 -35.2554 -35.2554
   -16.0509 -16.0495 -16.0455 -16.0417 -16.0387 -16.0338 -15.9434 -15.9429
   -11.9090 -11.9075 -11.8859 -11.8837 -11.8463 -11.8444 -11.7011 -11.6995
   -11.6702 -11.6693 -11.6580 -11.6557 -11.6404 -11.6382 -11.5064 -11.5063
     3.5315   3.5324   4.5422   4.5430   6.8245   6.8248   7.8556   7.8556
     8.1238   8.1244   8.4295   8.4299   8.8336   8.8338   9.2822   9.2827
     9.3936   9.3939   9.7725   9.7726   9.9377   9.9379  10.7133  10.7135

          k =-0.2500 0.2500-0.2500 (  6007 PWs)   bands (ev):

   -35.2917 -35.2917 -35.2686 -35.2686 -35.2632 -35.2632 -35.2556 -35.2556
   -16.0528 -16.0504 -16.0455 -16.0414 -16.0366 -16.0329 -15.9436 -15.9431
   -11.9111 -11.9097 -11.8857 -11.8839 -11.8433 -11.8414 -11.7004 -11.6989
   -11.6681 -11.6662 -11.6594 -11.6573 -11.6435 -11.6414 -11.5058 -11.5056
     3.5334   3.5343   4.5378   4.5386   6.8321   6.8324   7.8538   7.8539
     8.1250   8.1256   8.4223   8.4227   8.8341   8.8343   9.2797   9.2802
     9.3983   9.3985   9.7723   9.7724   9.9363   9.9365  10.7133  10.7136

          k = 0.2500-0.2500-0.2500 (  6007 PWs)   bands (ev):

   -35.2917 -35.2917 -35.2686 -35.2686 -35.2631 -35.2631 -35.2557 -35.2557
   -16.0527 -16.0503 -16.0454 -16.0416 -16.0365 -16.0329 -15.9437 -15.9432
   -11.9108 -11.9096 -11.8853 -11.8836 -11.8431 -11.8414 -11.7007 -11.6993
   -11.6682 -11.6664 -11.6595 -11.6575 -11.6435 -11.6415 -11.5058 -11.5057
     3.5360   3.5366   4.5406   4.5415   6.8261   6.8266   7.8545   7.8546
     8.1215   8.1224   8.4204   8.4212   8.8334   8.8335   9.2790   9.2796
     9.3911   9.3915   9.7733   9.7734   9.9364   9.9366  10.7152  10.7154

          k =-0.2500 0.2500 0.5000 (  6004 PWs)   bands (ev):

   -35.2824 -35.2824 -35.2745 -35.2745 -35.2651 -35.2651 -35.2572 -35.2572
   -16.0506 -16.0504 -16.0391 -16.0387 -15.9984 -15.9978 -15.9907 -15.9902
   -11.9170 -11.9169 -11.8644 -11.8636 -11.8265 -11.8250 -11.7845 -11.7843
   -11.6659 -11.6647 -11.6332 -11.6328 -11.5773 -11.5767 -11.5481 -11.5479
     3.9831   3.9833   4.0862   4.0864   7.0473   7.0474   8.0281   8.0344
     8.1218   8.1283   8.9579   8.9620   8.9848   8.9885   9.0525   9.0532
     9.4596   9.4598   9.9305   9.9306  10.2356  10.2375  10.2438  10.2457

          k =-0.5000-0.2500 0.2500 (  6004 PWs)   bands (ev):

   -35.2814 -35.2814 -35.2765 -35.2765 -35.2631 -35.2631 -35.2580 -35.2580
   -16.0476 -16.0469 -16.0440 -16.0421 -16.0005 -15.9988 -15.9883 -15.9874
   -11.9085 -11.9060 -11.8897 -11.8872 -11.8067 -11.8032 -11.7907 -11.7889
   -11.6564 -11.6547 -11.6476 -11.6457 -11.5643 -11.5628 -11.5590 -11.5573
     3.6810   3.6818   4.5090   4.5097   6.9185   6.9187   7.6149   7.6150
     8.5322   8.5325   8.8961   8.8964   8.9973   8.9974   9.2523   9.2526
     9.4771   9.4775   9.6687   9.6694  10.2408  10.2408  10.3344  10.3346

          k = 0.5000-0.2500-0.2500 (  6004 PWs)   bands (ev):

   -35.2814 -35.2814 -35.2765 -35.2765 -35.2631 -35.2631 -35.2580 -35.2580
   -16.0476 -16.0470 -16.0438 -16.0423 -16.0004 -15.9989 -15.9883 -15.9875
   -11.9084 -11.9062 -11.8895 -11.8873 -11.8067 -11.8032 -11.7906 -11.7890
   -11.6563 -11.6547 -11.6477 -11.6457 -11.5644 -11.5626 -11.5591 -11.5573
     3.6811   3.6816   4.5091   4.5097   6.9187   6.9187   7.6149   7.6150
     8.5322   8.5325   8.8961   8.8962   8.9973   8.9976   9.2522   9.2525
     9.4770   9.4774   9.6689   9.6689  10.2407  10.2407  10.3345  10.3345

          k =-0.2500-0.5000 0.2500 (  6004 PWs)   bands (ev):

   -35.2830 -35.2830 -35.2722 -35.2722 -35.2674 -35.2674 -35.2564 -35.2564
   -16.0514 -16.0472 -16.0422 -16.0380 -16.0028 -16.0006 -15.9881 -15.9855
   -11.9087 -11.9055 -11.8902 -11.8862 -11.8066 -11.8040 -11.7911 -11.7884
   -11.6580 -11.6530 -11.6485 -11.6450 -11.5651 -11.5637 -11.5581 -11.5567
     3.6819   3.6827   4.5112   4.5119   6.9143   6.9147   7.6133   7.6135
     8.5319   8.5321   8.8965   8.8968   8.9964   8.9968   9.2481   9.2485
     9.4786   9.4790   9.6700   9.6704  10.2423  10.2426  10.3339  10.3344

          k =-0.2500 0.5000-0.2500 (  6004 PWs)   bands (ev):

   -35.2830 -35.2830 -35.2723 -35.2723 -35.2674 -35.2674 -35.2564 -35.2564
   -16.0514 -16.0474 -16.0422 -16.0381 -16.0026 -16.0005 -15.9880 -15.9854
   -11.9091 -11.9058 -11.8906 -11.8865 -11.8062 -11.8037 -11.7910 -11.7883
   -11.6580 -11.6530 -11.6482 -11.6447 -11.5651 -11.5636 -11.5581 -11.5566
     3.6801   3.6809   4.5068   4.5075   6.9225   6.9229   7.6166   7.6168
     8.5325   8.5328   8.8956   8.8960   8.9980   8.9985   9.2561   9.2565
     9.4753   9.4757   9.6678   9.6683  10.2389  10.2392  10.3344  10.3349

          k =-0.5000 0.2500 0.5000 (  6000 PWs)   bands (ev):

   -35.2788 -35.2788 -35.2715 -35.2715 -35.2686 -35.2686 -35.2601 -35.2601
   -16.0323 -16.0320 -16.0260 -16.0255 -16.0174 -16.0168 -16.0100 -16.0097
   -11.9037 -11.9021 -11.8983 -11.8970 -11.8462 -11.8450 -11.8405 -11.8388
   -11.6004 -11.5980 -11.5929 -11.5906 -11.5694 -11.5670 -11.5622 -11.5598
     4.0061   4.0063   4.0305   4.0307   7.3278   7.3278   7.3282   7.3282
     8.7495   8.7507   8.7531   8.7534   9.4667   9.4669   9.4764   9.4764
     9.8943   9.8949   9.9018   9.9020  10.2149  10.2150  10.2212  10.2213

          k =-0.5000 0.5000 0.2500 (  6000 PWs)   bands (ev):

   -35.2789 -35.2789 -35.2716 -35.2716 -35.2685 -35.2685 -35.2600 -35.2600
   -16.0335 -16.0321 -16.0277 -16.0229 -16.0206 -16.0155 -16.0094 -16.0078
   -11.9139 -11.9106 -11.8888 -11.8856 -11.8495 -11.8469 -11.8399 -11.8362
   -11.6014 -11.5976 -11.5925 -11.5894 -11.5694 -11.5674 -11.5626 -11.5604
     3.6935   3.6941   4.4335   4.4341   7.3396   7.3397   7.3412   7.3413
     8.0992   8.0997   9.2557   9.2560   9.4673   9.4675   9.4792   9.4793
     9.7826   9.7828  10.0026  10.0037  10.2249  10.2252  10.2299  10.2301

     the Fermi energy is     9.1425 ev

!    total energy              =   -2240.91102639 Ry
     Harris-Foulkes estimate   =   -2240.91102740 Ry
     estimated scf accuracy    <       0.00000085 Ry

     total all-electron energy =    -90245.254429 Ry

     The total energy is the sum of the following terms:

     one-electron contribution =     -61.94377050 Ry
     hartree contribution      =      46.96451882 Ry
     xc contribution           =    -252.51387927 Ry
     ewald contribution        =    -225.36073735 Ry
     one-center paw contrib.   =   -1748.05343004 Ry
     smearing contrib. (-TS)   =      -0.00372805 Ry

     convergence has been achieved in   4 iterations

     Forces acting on atoms (cartesian axes, Ry/au):

     atom    1 type  1   force =     0.01680060   -0.01643361    0.00088879
     atom    2 type  1   force =     0.01800573    0.01824489    0.00082911
     atom    3 type  1   force =    -0.01752999   -0.01707426    0.00021339
     atom    4 type  1   force =    -0.01756445    0.01771635    0.00017414
     atom    5 type  2   force =     0.00020611   -0.00233620   -0.00222568
     atom    6 type  2   force =     0.00008200   -0.00011717    0.00012025

     Total force =     0.049423     Total SCF correction =     0.002657


     Computing stress (Cartesian axis) and pressure

     Message from routine stres:
     noncollinear stress + GGA not implemented

     number of scf cycles    =   2
     number of bfgs steps    =   1

     enthalpy old            =   -2240.9079798021 Ry
     enthalpy new            =   -2240.9110263941 Ry

     CASE: enthalpy_new < enthalpy_old


     WARNING: bfgs curvature condition failed, Theta= 0.933
     new trust radius        =       0.0327339706 bohr
     new conv_thr            =       0.0000001824 Ry

     new unit-cell volume =   1006.37882 a.u.^3 (   149.12995 Ang^3 )
     density =      7.02626 g/cm^3

CELL_PARAMETERS (angstrom)
   5.303000000   0.000000000   0.000000000
   0.000000000   5.303000000   0.000000000
   0.000000000   0.000000000   5.303000000

ATOMIC_POSITIONS (crystal)
Gd       0.004110577  -0.004031381   0.000204897
Gd       0.004379378   0.504435569   0.500184408
Gd       0.495734992  -0.004175849   0.500049449
Gd       0.495726689   0.504319099   0.000042978
H        0.250039929   0.753373249   0.753385822
H        0.250008435   0.750079312   0.250032446



     Writing output data file 2302.save
     NEW-OLD atomic charge density approx. for the potential

     Check: negative/imaginary core charge=   -0.000002    0.000000

     total cpu time spent up to now is      127.5 secs

     per-process dynamical memory:   149.6 Mb

     Self-consistent Calculation

     iteration #  1     ecut=    50.00 Ry     beta=0.70
     Davidson diagonalization with overlap
     ethr =  1.00E-06,  avg # of iterations =  5.0

     total cpu time spent up to now is      139.2 secs

     total energy              =   -2240.91340024 Ry
     Harris-Foulkes estimate   =   -2240.91775771 Ry
     estimated scf accuracy    <       0.00072431 Ry

     iteration #  2     ecut=    50.00 Ry     beta=0.70
     Davidson diagonalization with overlap
     ethr =  1.57E-06,  avg # of iterations =  3.0

     total cpu time spent up to now is      148.6 secs

     total energy              =   -2240.91347131 Ry
     Harris-Foulkes estimate   =   -2240.91407291 Ry
     estimated scf accuracy    <       0.00149024 Ry

     iteration #  3     ecut=    50.00 Ry     beta=0.70
     Davidson diagonalization with overlap
     ethr =  1.57E-06,  avg # of iterations =  2.3

     total cpu time spent up to now is      155.0 secs

     total energy              =   -2240.91370910 Ry
     Harris-Foulkes estimate   =   -2240.91372372 Ry
     estimated scf accuracy    <       0.00000242 Ry

     iteration #  4     ecut=    50.00 Ry     beta=0.70
     Davidson diagonalization with overlap
     ethr =  5.27E-09,  avg # of iterations =  4.2

     total cpu time spent up to now is      164.4 secs

     total energy              =   -2240.91371070 Ry
     Harris-Foulkes estimate   =   -2240.91371196 Ry
     estimated scf accuracy    <       0.00000180 Ry

     iteration #  5     ecut=    50.00 Ry     beta=0.70
     Davidson diagonalization with overlap
     ethr =  3.92E-09,  avg # of iterations =  3.3

     total cpu time spent up to now is      173.2 secs

     total energy              =   -2240.91371100 Ry
     Harris-Foulkes estimate   =   -2240.91371122 Ry
     estimated scf accuracy    <       0.00000039 Ry

     iteration #  6     ecut=    50.00 Ry     beta=0.70
     Davidson diagonalization with overlap
     ethr =  8.51E-10,  avg # of iterations =  2.9

     total cpu time spent up to now is      180.6 secs

     End of self-consistent calculation

          k = 0.0000 0.0000 0.0000 (  6031 PWs)   bands (ev):

   -35.3109 -35.3109 -35.2615 -35.2615 -35.2560 -35.2560 -35.2495 -35.2495
   -16.0769 -16.0769 -16.0678 -16.0678 -16.0584 -16.0584 -15.8660 -15.8660
   -11.9703 -11.9703 -11.9351 -11.9351 -11.8894 -11.8894 -11.7018 -11.7018
   -11.6803 -11.6803 -11.6671 -11.6671 -11.4692 -11.4692 -11.4634 -11.4634
     2.7983   2.7983   4.5682   4.5682   6.6945   6.6945   7.3402   7.3402
     7.3439   7.3439   7.3463   7.3463   8.2544   8.2544   9.4794   9.4794
    10.1962  10.1962  10.4788  10.4788  10.4857  10.4857  10.6590  10.6590

          k = 0.0000 0.0000 0.2500 (  6023 PWs)   bands (ev):

   -35.3032 -35.3032 -35.2655 -35.2655 -35.2587 -35.2587 -35.2505 -35.2505
   -16.0741 -16.0739 -16.0621 -16.0607 -16.0387 -16.0371 -15.8962 -15.8959
   -11.9433 -11.9429 -11.8915 -11.8903 -11.8582 -11.8565 -11.7306 -11.7297
   -11.6971 -11.6962 -11.6494 -11.6492 -11.5416 -11.5416 -11.4951 -11.4951
     3.1462   3.1467   4.4582   4.4590   6.8780   6.8789   7.3699   7.3699
     7.7519   7.7520   7.7543   7.7551   8.5532   8.5533   9.2486   9.2488
     9.8007   9.8013  10.1874  10.1884  10.5320  10.5321  10.7422  10.7422

          k = 0.0000 0.0000-0.5000 (  5942 PWs)   bands (ev):

   -35.2880 -35.2880 -35.2796 -35.2796 -35.2594 -35.2594 -35.2509 -35.2509
   -16.0707 -16.0707 -16.0634 -16.0634 -15.9716 -15.9716 -15.9640 -15.9640
   -11.8882 -11.8882 -11.8825 -11.8825 -11.7524 -11.7524 -11.7457 -11.7457
   -11.7140 -11.7140 -11.7078 -11.7078 -11.5740 -11.5740 -11.5665 -11.5665
     3.9072   3.9072   3.9335   3.9335   7.2148   7.2148   7.2254   7.2254
     8.3568   8.3568   8.3578   8.3578   9.1972   9.1972   9.1996   9.1996
     9.3991   9.3991   9.4004   9.4004  10.5910  10.5910  10.5953  10.5953

          k = 0.0000 0.2500 0.2500 (  6016 PWs)   bands (ev):

   -35.2968 -35.2968 -35.2656 -35.2656 -35.2627 -35.2627 -35.2528 -35.2528
   -16.0665 -16.0653 -16.0459 -16.0444 -16.0405 -16.0381 -15.9217 -15.9214
   -11.9223 -11.9221 -11.8824 -11.8821 -11.8385 -11.8376 -11.7230 -11.7215
   -11.6741 -11.6738 -11.6610 -11.6604 -11.6144 -11.6138 -11.5059 -11.5059
     3.3659   3.3663   4.4875   4.4884   6.7916   6.7923   7.7589   7.7591
     7.9303   7.9309   8.1101   8.1102   8.7056   8.7056   9.3079   9.3082
     9.4959   9.4963   9.8549   9.8552  10.0277  10.0278  10.7192  10.7193

          k = 0.0000 0.2500-0.5000 (  6018 PWs)   bands (ev):

   -35.2843 -35.2843 -35.2759 -35.2759 -35.2631 -35.2631 -35.2545 -35.2545
   -16.0587 -16.0583 -16.0500 -16.0496 -15.9877 -15.9872 -15.9788 -15.9784
   -11.9058 -11.9053 -11.8602 -11.8601 -11.7833 -11.7812 -11.7421 -11.7401
   -11.7131 -11.7101 -11.6815 -11.6800 -11.5901 -11.5896 -11.5637 -11.5632
     3.9780   3.9787   4.0068   4.0075   7.3250   7.3251   7.3800   7.3809
     8.6177   8.6190   8.6643   8.6648   9.0258   9.0261   9.0275   9.0278
     9.3238   9.3239   9.3262   9.3264  10.1712  10.1713  10.1869  10.1871

          k = 0.0000-0.5000-0.5000 (  6024 PWs)   bands (ev):

   -35.2783 -35.2783 -35.2699 -35.2699 -35.2691 -35.2691 -35.2604 -35.2604
   -16.0322 -16.0322 -16.0256 -16.0256 -16.0140 -16.0140 -16.0073 -16.0073
   -11.8728 -11.8728 -11.8717 -11.8717 -11.8053 -11.8053 -11.8046 -11.8046
   -11.6408 -11.6408 -11.6392 -11.6392 -11.6022 -11.6022 -11.6015 -11.6015
     4.0535   4.0535   4.0762   4.0762   7.5312   7.5312   7.5318   7.5318
     8.5826   8.5826   8.5856   8.5856   9.3972   9.3972   9.3991   9.3991
     9.5039   9.5039   9.5056   9.5056   9.6445   9.6445   9.6462   9.6462

          k = 0.2500 0.2500 0.2500 (  6007 PWs)   bands (ev):

   -35.2914 -35.2914 -35.2680 -35.2680 -35.2627 -35.2627 -35.2558 -35.2558
   -16.0518 -16.0509 -16.0469 -16.0434 -16.0392 -16.0350 -15.9432 -15.9428
   -11.9169 -11.9157 -11.8919 -11.8903 -11.8428 -11.8412 -11.7092 -11.7079
   -11.6660 -11.6652 -11.6584 -11.6564 -11.6368 -11.6346 -11.5061 -11.5060
     3.4912   3.4917   4.4634   4.4641   6.8301   6.8306   7.8551   7.8551
     8.1196   8.1204   8.4229   8.4235   8.8362   8.8364   9.2938   9.2944
     9.4394   9.4398   9.7729   9.7730   9.9368   9.9369  10.7090  10.7093

          k = 0.2500 0.2500-0.5000 (  6004 PWs)   bands (ev):

   -35.2816 -35.2816 -35.2736 -35.2736 -35.2657 -35.2657 -35.2567 -35.2567
   -16.0501 -16.0497 -16.0423 -16.0418 -16.0011 -16.0007 -15.9886 -15.9883
   -11.9212 -11.9209 -11.8723 -11.8716 -11.8303 -11.8290 -11.7824 -11.7818
   -11.6691 -11.6680 -11.6287 -11.6282 -11.5754 -11.5749 -11.5494 -11.5491
     3.9059   3.9062   4.0536   4.0537   7.0422   7.0423   8.0298   8.0354
     8.1206   8.1262   8.9661   8.9681   9.0078   9.0098   9.0335   9.0350
     9.5027   9.5029   9.9334   9.9335  10.2283  10.2291  10.2384  10.2393

          k = 0.2500-0.5000-0.5000 (  6000 PWs)   bands (ev):

   -35.2781 -35.2781 -35.2697 -35.2697 -35.2692 -35.2692 -35.2606 -35.2606
   -16.0339 -16.0339 -16.0275 -16.0274 -16.0169 -16.0168 -16.0101 -16.0100
   -11.9095 -11.9093 -11.9050 -11.9049 -11.8442 -11.8441 -11.8391 -11.8390
   -11.6010 -11.6009 -11.5940 -11.5939 -11.5662 -11.5661 -11.5592 -11.5591
     3.9519   3.9521   3.9740   3.9742   7.3309   7.3309   7.3319   7.3319
     8.7592   8.7595   8.7627   8.7629   9.4729   9.4729   9.4829   9.4830
     9.8854   9.8859   9.8951   9.8956  10.2185  10.2186  10.2254  10.2254

          k =-0.5000-0.5000-0.5000 (  6008 PWs)   bands (ev):

   -35.2778 -35.2778 -35.2695 -35.2695 -35.2694 -35.2694 -35.2607 -35.2607
   -16.0355 -16.0355 -16.0296 -16.0296 -16.0194 -16.0194 -16.0130 -16.0130
   -11.9366 -11.9366 -11.9326 -11.9326 -11.8720 -11.8720 -11.8672 -11.8672
   -11.5665 -11.5665 -11.5604 -11.5604 -11.5341 -11.5341 -11.5282 -11.5282
     3.8571   3.8571   3.8788   3.8788   7.1520   7.1520   7.1529   7.1529
     8.9722   8.9722   8.9752   8.9752   9.8548   9.8548   9.8550   9.8550
    10.2788  10.2788  10.2797  10.2797  10.4008  10.4008  10.4023  10.4023

          k = 0.2500 0.0000 0.0000 (  6023 PWs)   bands (ev):

   -35.3033 -35.3033 -35.2667 -35.2667 -35.2560 -35.2560 -35.2520 -35.2520
   -16.0702 -16.0693 -16.0673 -16.0672 -16.0373 -16.0363 -15.8957 -15.8954
   -11.9353 -11.9347 -11.9135 -11.9130 -11.8446 -11.8438 -11.7185 -11.7180
   -11.7088 -11.7081 -11.6485 -11.6483 -11.5375 -11.5373 -11.4991 -11.4990
     3.0851   3.0853   4.6398   4.6399   6.5398   6.5400   7.5762   7.5771
     7.7468   7.7475   7.7517   7.7534   8.5235   8.5235   9.4503   9.4504
     9.6256   9.6264  10.2035  10.2044  10.5193  10.5194  10.7462  10.7464

          k = 0.0000 0.2500 0.0000 (  6023 PWs)   bands (ev):

   -35.3033 -35.3033 -35.2653 -35.2653 -35.2587 -35.2587 -35.2506 -35.2506
   -16.0721 -16.0718 -16.0649 -16.0644 -16.0373 -16.0372 -15.8955 -15.8955
   -11.9352 -11.9351 -11.9132 -11.9130 -11.8442 -11.8442 -11.7187 -11.7184
   -11.7081 -11.7080 -11.6486 -11.6485 -11.5375 -11.5373 -11.4990 -11.4990
     3.0851   3.0853   4.6398   4.6399   6.5398   6.5400   7.5767   7.5768
     7.7470   7.7473   7.7524   7.7525   8.5235   8.5235   9.4502   9.4503
     9.6258   9.6264  10.2038  10.2042  10.5194  10.5194  10.7463  10.7464

          k =-0.5000 0.0000 0.0000 (  5942 PWs)   bands (ev):

   -35.2883 -35.2883 -35.2804 -35.2804 -35.2559 -35.2559 -35.2533 -35.2533
   -16.0678 -16.0678 -16.0667 -16.0667 -15.9800 -15.9800 -15.9551 -15.9551
   -11.8955 -11.8955 -11.8820 -11.8820 -11.7536 -11.7536 -11.7469 -11.7469
   -11.7226 -11.7226 -11.6796 -11.6796 -11.5869 -11.5869 -11.5641 -11.5641
     3.4424   3.4424   4.7165   4.7165   6.2476   6.2476   7.8969   7.8969
     8.3485   8.3485   8.3534   8.3534   9.1499   9.1499   9.2493   9.2493
     9.3778   9.3778   9.4001   9.4001  10.5076  10.5076  10.6816  10.6816

          k = 0.0000-0.5000 0.0000 (  5942 PWs)   bands (ev):

   -35.2894 -35.2894 -35.2781 -35.2781 -35.2595 -35.2595 -35.2509 -35.2509
   -16.0708 -16.0708 -16.0634 -16.0634 -15.9807 -15.9807 -15.9547 -15.9547
   -11.8960 -11.8960 -11.8814 -11.8814 -11.7545 -11.7545 -11.7455 -11.7455
   -11.7231 -11.7231 -11.6796 -11.6796 -11.5874 -11.5874 -11.5636 -11.5636
     3.4424   3.4424   4.7164   4.7164   6.2476   6.2476   7.8970   7.8970
     8.3485   8.3485   8.3533   8.3533   9.1496   9.1496   9.2496   9.2496
     9.3777   9.3777   9.4001   9.4001  10.5081  10.5081  10.6814  10.6814

          k = 0.0000-0.2500 0.2500 (  6016 PWs)   bands (ev):

   -35.2968 -35.2968 -35.2656 -35.2656 -35.2627 -35.2627 -35.2528 -35.2528
   -16.0664 -16.0654 -16.0459 -16.0444 -16.0404 -16.0381 -15.9217 -15.9213
   -11.9223 -11.9221 -11.8826 -11.8819 -11.8385 -11.8376 -11.7233 -11.7212
   -11.6741 -11.6738 -11.6609 -11.6605 -11.6143 -11.6138 -11.5059 -11.5059
     3.3657   3.3665   4.4876   4.4882   6.7920   6.7922   7.7587   7.7590
     7.9304   7.9308   8.1099   8.1101   8.7056   8.7056   9.3080   9.3080
     9.4961   9.4963   9.8550   9.8551  10.0277  10.0278  10.7192  10.7193

          k = 0.2500 0.0000-0.2500 (  6016 PWs)   bands (ev):

   -35.2967 -35.2967 -35.2673 -35.2673 -35.2604 -35.2604 -35.2535 -35.2535
   -16.0655 -16.0654 -16.0489 -16.0432 -16.0416 -16.0359 -15.9217 -15.9214
   -11.9226 -11.9216 -11.8831 -11.8810 -11.8393 -11.8366 -11.7228 -11.7220
   -11.6760 -11.6717 -11.6619 -11.6597 -11.6146 -11.6140 -11.5059 -11.5058
     3.3670   3.3676   4.4885   4.4892   6.7901   6.7905   7.7590   7.7592
     7.9297   7.9305   8.1083   8.1093   8.7055   8.7056   9.3047   9.3049
     9.4926   9.4929   9.8549   9.8551  10.0279  10.0283  10.7208  10.7209

          k =-0.2500 0.0000-0.2500 (  6016 PWs)   bands (ev):

   -35.2967 -35.2967 -35.2673 -35.2673 -35.2604 -35.2604 -35.2535 -35.2535
   -16.0656 -16.0653 -16.0489 -16.0433 -16.0416 -16.0360 -15.9217 -15.9214
   -11.9227 -11.9218 -11.8835 -11.8813 -11.8394 -11.8367 -11.7226 -11.7218
   -11.6761 -11.6717 -11.6617 -11.6594 -11.6143 -11.6137 -11.5060 -11.5058
     3.3646   3.3652   4.4867   4.4875   6.7935   6.7940   7.7586   7.7588
     7.9306   7.9314   8.1111   8.1121   8.7056   8.7057   9.3110   9.3112
     9.4994   9.4998   9.8548   9.8550  10.0273  10.0276  10.7174  10.7174

          k = 0.2500-0.2500 0.0000 (  6016 PWs)   bands (ev):

   -35.2969 -35.2969 -35.2670 -35.2670 -35.2604 -35.2604 -35.2536 -35.2536
   -16.0656 -16.0638 -16.0516 -16.0496 -16.0354 -16.0352 -15.9213 -15.9210
   -11.9212 -11.9200 -11.8937 -11.8922 -11.8280 -11.8271 -11.7179 -11.7152
   -11.6881 -11.6868 -11.6545 -11.6544 -11.6132 -11.6130 -11.5068 -11.5067
     3.2916   3.2919   4.6851   4.6852   6.6154   6.6156   7.6597   7.6597
     7.9563   7.9565   8.1764   8.1768   8.7470   8.7470   9.2949   9.2954
     9.4654   9.4659   9.9361   9.9362   9.9788   9.9790  10.7185  10.7186

          k =-0.2500-0.2500 0.0000 (  6016 PWs)   bands (ev):

   -35.2968 -35.2968 -35.2674 -35.2674 -35.2601 -35.2601 -35.2535 -35.2535
   -16.0653 -16.0640 -16.0496 -16.0489 -16.0374 -16.0365 -15.9211 -15.9208
   -11.9206 -11.9193 -11.8921 -11.8905 -11.8319 -11.8311 -11.7186 -11.7159
   -11.6901 -11.6885 -11.6505 -11.6503 -11.6120 -11.6117 -11.5079 -11.5078
     3.2888   3.2891   4.6846   4.6847   6.6171   6.6172   7.6605   7.6606
     7.9504   7.9506   8.1867   8.1871   8.7464   8.7464   9.3013   9.3017
     9.4701   9.4705   9.9382   9.9384   9.9803   9.9805  10.7129  10.7130

          k = 0.2500 0.0000 0.5000 (  6018 PWs)   bands (ev):

   -35.2843 -35.2843 -35.2759 -35.2759 -35.2631 -35.2631 -35.2545 -35.2545
   -16.0586 -16.0585 -16.0499 -16.0498 -15.9875 -15.9874 -15.9787 -15.9785
   -11.9056 -11.9056 -11.8602 -11.8601 -11.7823 -11.7821 -11.7410 -11.7408
   -11.7118 -11.7116 -11.6810 -11.6809 -11.5898 -11.5898 -11.5634 -11.5634
     3.9781   3.9785   4.0070   4.0074   7.3249   7.3250   7.3805   7.3805
     8.6183   8.6184   8.6646   8.6646   9.0253   9.0259   9.0275   9.0280
     9.3239   9.3241   9.3264   9.3265  10.1706  10.1707  10.1872  10.1872

          k =-0.5000-0.2500 0.0000 (  6018 PWs)   bands (ev):

   -35.2843 -35.2843 -35.2773 -35.2773 -35.2599 -35.2599 -35.2563 -35.2563
   -16.0573 -16.0568 -16.0522 -16.0516 -15.9937 -15.9934 -15.9718 -15.9716
   -11.9066 -11.9065 -11.8692 -11.8688 -11.7690 -11.7687 -11.7413 -11.7410
   -11.7066 -11.7062 -11.6892 -11.6888 -11.5810 -11.5808 -11.5730 -11.5729
     3.5269   3.5270   4.7315   4.7317   6.6128   6.6129   7.7139   7.7139
     8.5305   8.5307   8.7437   8.7437   8.8073   8.8077   9.2478   9.2479
     9.3317   9.3318   9.4075   9.4079  10.0918  10.0918  10.2745  10.2745

          k = 0.0000-0.5000 0.2500 (  6018 PWs)   bands (ev):

   -35.2853 -35.2853 -35.2747 -35.2747 -35.2632 -35.2632 -35.2546 -35.2546
   -16.0602 -16.0565 -16.0514 -16.0477 -15.9953 -15.9940 -15.9726 -15.9710
   -11.9027 -11.9004 -11.8763 -11.8723 -11.7713 -11.7707 -11.7388 -11.7382
   -11.7080 -11.7042 -11.6911 -11.6888 -11.5817 -11.5810 -11.5720 -11.5716
     3.6249   3.6257   4.5177   4.5184   6.6141   6.6142   8.1090   8.1094
     8.5399   8.5400   8.6553   8.6556   8.8159   8.8159   9.1151   9.1151
     9.2504   9.2505   9.4174   9.4174  10.0872  10.0873  10.3174  10.3178

          k = 0.2500-0.5000 0.0000 (  6018 PWs)   bands (ev):

   -35.2854 -35.2854 -35.2748 -35.2748 -35.2631 -35.2631 -35.2545 -35.2545
   -16.0603 -16.0560 -16.0527 -16.0481 -15.9949 -15.9938 -15.9720 -15.9706
   -11.9076 -11.9055 -11.8708 -11.8673 -11.7699 -11.7676 -11.7420 -11.7398
   -11.7085 -11.7045 -11.6905 -11.6879 -11.5815 -11.5811 -11.5728 -11.5722
     3.5268   3.5271   4.7315   4.7317   6.6128   6.6129   7.7137   7.7141
     8.5305   8.5307   8.7435   8.7438   8.8074   8.8078   9.2476   9.2476
     9.3320   9.3321   9.4074   9.4077  10.0918  10.0922  10.2741  10.2745

          k =-0.5000 0.0000 0.2500 (  6018 PWs)   bands (ev):

   -35.2842 -35.2842 -35.2772 -35.2772 -35.2600 -35.2600 -35.2564 -35.2564
   -16.0574 -16.0570 -16.0517 -16.0505 -15.9944 -15.9934 -15.9724 -15.9720
   -11.9026 -11.9006 -11.8755 -11.8732 -11.7735 -11.7683 -11.7386 -11.7383
   -11.7064 -11.7062 -11.6913 -11.6886 -11.5818 -11.5801 -11.5728 -11.5715
     3.6251   3.6256   4.5178   4.5184   6.6141   6.6142   8.1091   8.1093
     8.5396   8.5404   8.6553   8.6557   8.8155   8.8164   9.1148   9.1149
     9.2507   9.2507   9.4173   9.4176  10.0869  10.0870  10.3177  10.3177

          k =-0.5000 0.0000 0.5000 (  6024 PWs)   bands (ev):

   -35.2783 -35.2783 -35.2699 -35.2699 -35.2691 -35.2691 -35.2604 -35.2604
   -16.0322 -16.0322 -16.0256 -16.0256 -16.0141 -16.0141 -16.0072 -16.0072
   -11.8748 -11.8748 -11.8696 -11.8696 -11.8076 -11.8076 -11.8020 -11.8020
   -11.6434 -11.6434 -11.6368 -11.6368 -11.6051 -11.6051 -11.5986 -11.5986
     4.0535   4.0535   4.0762   4.0762   7.5312   7.5312   7.5318   7.5318
     8.5825   8.5825   8.5857   8.5857   9.3974   9.3974   9.3993   9.3993
     9.5038   9.5038   9.5056   9.5056   9.6444   9.6444   9.6461   9.6461

          k =-0.5000 0.5000 0.0000 (  6024 PWs)   bands (ev):

   -35.2788 -35.2788 -35.2711 -35.2711 -35.2676 -35.2676 -35.2603 -35.2603
   -16.0335 -16.0335 -16.0276 -16.0276 -16.0159 -16.0159 -16.0019 -16.0019
   -11.8951 -11.8951 -11.8334 -11.8334 -11.8295 -11.8295 -11.7945 -11.7945
   -11.6505 -11.6505 -11.6258 -11.6258 -11.6109 -11.6109 -11.5987 -11.5987
     3.6138   3.6138   4.7467   4.7467   7.4866   7.4866   7.5701   7.5701
     7.5778   7.5778   9.3429   9.3429   9.3860   9.3860   9.3970   9.3970
     9.4213   9.4213   9.5628   9.5628   9.6307   9.6307   9.6569   9.6569

          k =-0.2500-0.2500 0.2500 (  6007 PWs)   bands (ev):

   -35.2914 -35.2914 -35.2680 -35.2680 -35.2627 -35.2627 -35.2558 -35.2558
   -16.0518 -16.0507 -16.0469 -16.0434 -16.0392 -16.0350 -15.9433 -15.9428
   -11.9168 -11.9154 -11.8917 -11.8899 -11.8428 -11.8411 -11.7096 -11.7081
   -11.6661 -11.6653 -11.6586 -11.6565 -11.6369 -11.6347 -11.5061 -11.5060
     3.4933   3.4941   4.4660   4.4667   6.8249   6.8251   7.8557   7.8558
     8.1164   8.1169   8.4213   8.4216   8.8355   8.8357   9.2944   9.2947
     9.4326   9.4328   9.7737   9.7738   9.9369   9.9371  10.7105  10.7108

          k =-0.2500 0.2500-0.2500 (  6007 PWs)   bands (ev):

   -35.2915 -35.2915 -35.2676 -35.2676 -35.2627 -35.2627 -35.2560 -35.2560
   -16.0541 -16.0520 -16.0464 -16.0427 -16.0374 -16.0340 -15.9435 -15.9430
   -11.9191 -11.9178 -11.8915 -11.8898 -11.8396 -11.8379 -11.7087 -11.7072
   -11.6659 -11.6627 -11.6595 -11.6573 -11.6401 -11.6380 -11.5053 -11.5051
     3.4950   3.4958   4.4620   4.4627   6.8321   6.8323   7.8545   7.8546
     8.1171   8.1176   8.4140   8.4144   8.8365   8.8367   9.2921   9.2925
     9.4372   9.4374   9.7728   9.7729   9.9354   9.9355  10.7109  10.7111

          k = 0.2500-0.2500-0.2500 (  6007 PWs)   bands (ev):

   -35.2915 -35.2915 -35.2676 -35.2676 -35.2627 -35.2627 -35.2560 -35.2560
   -16.0540 -16.0520 -16.0463 -16.0428 -16.0373 -16.0341 -15.9435 -15.9431
   -11.9188 -11.9177 -11.8911 -11.8896 -11.8395 -11.8379 -11.7089 -11.7076
   -11.6660 -11.6629 -11.6597 -11.6574 -11.6401 -11.6382 -11.5053 -11.5052
     3.4974   3.4979   4.4646   4.4653   6.8265   6.8269   7.8552   7.8553
     8.1137   8.1145   8.4122   8.4129   8.8358   8.8359   9.2922   9.2928
     9.4303   9.4307   9.7737   9.7738   9.9355   9.9357  10.7126  10.7128

          k =-0.2500 0.2500 0.5000 (  6004 PWs)   bands (ev):

   -35.2820 -35.2820 -35.2732 -35.2732 -35.2654 -35.2654 -35.2571 -35.2571
   -16.0523 -16.0521 -16.0399 -16.0395 -15.9990 -15.9985 -15.9909 -15.9904
   -11.9236 -11.9234 -11.8693 -11.8685 -11.8281 -11.8268 -11.7845 -11.7841
   -11.6665 -11.6653 -11.6318 -11.6313 -11.5788 -11.5783 -11.5462 -11.5458
     3.9304   3.9306   4.0316   4.0318   7.0444   7.0445   8.0270   8.0329
     8.1156   8.1216   8.9655   8.9681   9.0033   9.0057   9.0310   9.0322
[...]

          k =-0.5000-0.5000-0.5000 (  6008 PWs)   bands (ev):

   -35.2673 -35.2673 -35.2644 -35.2644 -35.2627 -35.2627 -35.2603 -35.2603
   -16.0356 -16.0356 -16.0338 -16.0338 -16.0144 -16.0144 -16.0128 -16.0128
   -11.9553 -11.9553 -11.9542 -11.9542 -11.8666 -11.8666 -11.8653 -11.8653
   -11.5645 -11.5645 -11.5635 -11.5635 -11.5232 -11.5232 -11.5217 -11.5217
     3.7015   3.7015   3.7141   3.7141   7.1641   7.1641   7.1642   7.1642
     9.0211   9.0211   9.0218   9.0218   9.8676   9.8676   9.8683   9.8683
    10.2308  10.2308  10.2327  10.2327  10.3674  10.3674  10.3694  10.3694

          k = 0.2500 0.0000 0.0000 (  6023 PWs)   bands (ev):

   -35.2995 -35.2995 -35.2568 -35.2568 -35.2499 -35.2499 -35.2489 -35.2489
   -16.0721 -16.0720 -16.0677 -16.0677 -16.0390 -16.0388 -15.8886 -15.8886
   -11.9636 -11.9636 -11.9263 -11.9261 -11.8402 -11.8400 -11.7268 -11.7264
   -11.7041 -11.7039 -11.6415 -11.6411 -11.5300 -11.5300 -11.4907 -11.4906
     2.9972   2.9972   4.3754   4.3754   6.5468   6.5470   7.5348   7.5349
     7.7336   7.7337   7.7426   7.7430   8.5331   8.5331   9.5329   9.5330
     9.7475   9.7478  10.2022  10.2025  10.4703  10.4704  10.7190  10.7191

          k = 0.0000 0.2500 0.0000 (  6023 PWs)   bands (ev):

   -35.2995 -35.2995 -35.2567 -35.2567 -35.2504 -35.2504 -35.2486 -35.2486
   -16.0722 -16.0721 -16.0676 -16.0676 -16.0389 -16.0389 -15.8886 -15.8886
   -11.9636 -11.9636 -11.9262 -11.9261 -11.8401 -11.8400 -11.7267 -11.7266
   -11.7040 -11.7040 -11.6413 -11.6412 -11.5300 -11.5300 -11.4907 -11.4906
     2.9972   2.9973   4.3754   4.3754   6.5469   6.5470   7.5347   7.5348
     7.7336   7.7337   7.7428   7.7429   8.5331   8.5331   9.5329   9.5330
     9.7475   9.7477  10.2023  10.2025  10.4704  10.4705  10.7191  10.7192

          k =-0.5000 0.0000 0.0000 (  5942 PWs)   bands (ev):

   -35.2873 -35.2873 -35.2689 -35.2689 -35.2498 -35.2498 -35.2492 -35.2492
   -16.0696 -16.0696 -16.0674 -16.0674 -15.9923 -15.9923 -15.9384 -15.9384
   -11.9276 -11.9276 -11.8979 -11.8979 -11.7587 -11.7587 -11.7397 -11.7397
   -11.7330 -11.7330 -11.6558 -11.6558 -11.5928 -11.5928 -11.5436 -11.5436
     3.3304   3.3304   4.4415   4.4415   6.2957   6.2957   7.8404   7.8404
     8.3282   8.3282   8.3396   8.3396   9.2358   9.2358   9.2531   9.2531
     9.4421   9.4421   9.4496   9.4496  10.3173  10.3173  10.8596  10.8596

          k = 0.0000-0.5000 0.0000 (  5942 PWs)   bands (ev):

   -35.2873 -35.2873 -35.2688 -35.2688 -35.2503 -35.2503 -35.2487 -35.2487
   -16.0698 -16.0698 -16.0672 -16.0672 -15.9923 -15.9923 -15.9384 -15.9384
   -11.9276 -11.9276 -11.8979 -11.8979 -11.7588 -11.7588 -11.7397 -11.7397
   -11.7329 -11.7329 -11.6559 -11.6559 -11.5926 -11.5926 -11.5436 -11.5436
     3.3305   3.3305   4.4415   4.4415   6.2956   6.2956   7.8402   7.8402
     8.3282   8.3282   8.3397   8.3397   9.2363   9.2363   9.2527   9.2527
     9.4420   9.4420   9.4495   9.4495  10.3181  10.3181  10.8590  10.8590

          k = 0.0000-0.2500 0.2500 (  6016 PWs)   bands (ev):

   -35.2923 -35.2923 -35.2574 -35.2574 -35.2556 -35.2556 -35.2498 -35.2498
   -16.0680 -16.0677 -16.0479 -16.0475 -16.0391 -16.0385 -15.9159 -15.9158
   -11.9493 -11.9488 -11.9046 -11.9044 -11.8250 -11.8248 -11.7357 -11.7354
   -11.6791 -11.6786 -11.6458 -11.6458 -11.5997 -11.5996 -11.4989 -11.4989
     3.2638   3.2640   4.2579   4.2580   6.7820   6.7821   7.7303   7.7304
     7.8921   7.8922   8.0992   8.0993   8.7150   8.7152   9.3869   9.3869
     9.6149   9.6149   9.8481   9.8481   9.9931   9.9932  10.7367  10.7367

          k = 0.2500 0.0000-0.2500 (  6016 PWs)   bands (ev):

   -35.2923 -35.2923 -35.2576 -35.2576 -35.2554 -35.2554 -35.2499 -35.2499
   -16.0679 -16.0678 -16.0484 -16.0470 -16.0394 -16.0381 -15.9159 -15.9158
   -11.9493 -11.9487 -11.9045 -11.9043 -11.8253 -11.8247 -11.7357 -11.7353
   -11.6792 -11.6782 -11.6461 -11.6459 -11.5999 -11.5998 -11.4988 -11.4988
     3.2644   3.2645   4.2586   4.2587   6.7811   6.7812   7.7295   7.7296
     7.8920   7.8922   8.0985   8.0988   8.7148   8.7150   9.3855   9.3857
     9.6131   9.6133   9.8479   9.8481   9.9933   9.9934  10.7370  10.7371

          k =-0.2500 0.0000-0.2500 (  6016 PWs)   bands (ev):

   -35.2923 -35.2923 -35.2576 -35.2576 -35.2554 -35.2554 -35.2499 -35.2499
   -16.0679 -16.0678 -16.0484 -16.0470 -16.0395 -16.0381 -15.9158 -15.9158
   -11.9494 -11.9488 -11.9047 -11.9045 -11.8251 -11.8245 -11.7358 -11.7354
   -11.6795 -11.6785 -11.6458 -11.6456 -11.5995 -11.5993 -11.4990 -11.4990
     3.2632   3.2633   4.2572   4.2574   6.7829   6.7831   7.7312   7.7313
     7.8923   7.8926   8.0999   8.1001   8.7152   8.7153   9.3878   9.3880
     9.6166   9.6168   9.8480   9.8482   9.9931   9.9932  10.7361  10.7362

          k = 0.2500-0.2500 0.0000 (  6016 PWs)   bands (ev):

   -35.2931 -35.2931 -35.2567 -35.2567 -35.2546 -35.2546 -35.2507 -35.2507
   -16.0658 -16.0652 -16.0543 -16.0535 -16.0368 -16.0367 -15.9138 -15.9137
   -11.9518 -11.9515 -11.9063 -11.9059 -11.8185 -11.8182 -11.7357 -11.7350
   -11.6886 -11.6885 -11.6413 -11.6409 -11.5962 -11.5961 -11.5004 -11.5004
     3.1938   3.1939   4.4161   4.4161   6.6298   6.6299   7.6568   7.6569
     7.9212   7.9212   8.1635   8.1636   8.7552   8.7552   9.3400   9.3401
     9.5945   9.5946   9.9175   9.9177   9.9780   9.9781  10.7053  10.7053

          k =-0.2500-0.2500 0.0000 (  6016 PWs)   bands (ev):

   -35.2930 -35.2930 -35.2572 -35.2572 -35.2541 -35.2541 -35.2507 -35.2507
   -16.0656 -16.0653 -16.0537 -16.0533 -16.0373 -16.0372 -15.9137 -15.9137
   -11.9518 -11.9517 -11.9057 -11.9053 -11.8192 -11.8191 -11.7368 -11.7363
   -11.6882 -11.6880 -11.6401 -11.6398 -11.5956 -11.5956 -11.5011 -11.5011
     3.1922   3.1923   4.4158   4.4158   6.6299   6.6300   7.6576   7.6577
     7.9203   7.9203   8.1699   8.1701   8.7550   8.7550   9.3421   9.3422
     9.5984   9.5985   9.9178   9.9179   9.9786   9.9787  10.7026  10.7027

          k = 0.2500 0.0000 0.5000 (  6018 PWs)   bands (ev):

   -35.2762 -35.2762 -35.2734 -35.2734 -35.2540 -35.2540 -35.2515 -35.2515
   -16.0594 -16.0594 -16.0538 -16.0538 -15.9826 -15.9826 -15.9772 -15.9771
   -11.9292 -11.9292 -11.8850 -11.8850 -11.7878 -11.7877 -11.7426 -11.7424
   -11.7003 -11.7001 -11.6709 -11.6708 -11.5833 -11.5833 -11.5533 -11.5533
     3.8287   3.8287   3.8482   3.8483   7.2891   7.2892   7.3390   7.3391
     8.5942   8.5943   8.6363   8.6363   9.0618   9.0618   9.0648   9.0649
     9.3618   9.3619   9.3704   9.3705  10.1905  10.1907  10.2083  10.2085

          k =-0.5000-0.2500 0.0000 (  6018 PWs)   bands (ev):

   -35.2825 -35.2825 -35.2663 -35.2663 -35.2539 -35.2539 -35.2522 -35.2522
   -16.0598 -16.0595 -16.0531 -16.0527 -16.0036 -16.0035 -15.9563 -15.9563
   -11.9382 -11.9381 -11.8800 -11.8797 -11.7791 -11.7789 -11.7490 -11.7488
   -11.7012 -11.7011 -11.6703 -11.6702 -11.5753 -11.5753 -11.5602 -11.5602
     3.4162   3.4162   4.4576   4.4577   6.6511   6.6512   7.6953   7.6953
     8.5602   8.5603   8.7212   8.7212   8.7836   8.7838   9.3223   9.3225
     9.3262   9.3263   9.4825   9.4826   9.9592   9.9593  10.3832  10.3832

          k = 0.0000-0.5000 0.2500 (  6018 PWs)   bands (ev):

   -35.2818 -35.2818 -35.2660 -35.2660 -35.2554 -35.2554 -35.2519 -35.2519
   -16.0610 -16.0602 -16.0497 -16.0489 -16.0047 -16.0045 -15.9584 -15.9582
   -11.9315 -11.9315 -11.8903 -11.8894 -11.7767 -11.7759 -11.7431 -11.7429
   -11.7077 -11.7069 -11.6712 -11.6708 -11.5746 -11.5744 -11.5586 -11.5586
     3.5002   3.5003   4.2792   4.2793   6.6536   6.6537   8.0564   8.0564
     8.5670   8.5672   8.6034   8.6040   8.7823   8.7823   9.1615   9.1616
     9.3568   9.3568   9.4606   9.4607   9.9929   9.9929  10.4682  10.4683

          k = 0.2500-0.5000 0.0000 (  6018 PWs)   bands (ev):

   -35.2825 -35.2825 -35.2663 -35.2663 -35.2542 -35.2542 -35.2520 -35.2520
   -16.0603 -16.0591 -16.0535 -16.0522 -16.0036 -16.0035 -15.9564 -15.9563
   -11.9383 -11.9380 -11.8803 -11.8795 -11.7794 -11.7786 -11.7493 -11.7486
   -11.7015 -11.7007 -11.6706 -11.6701 -11.5753 -11.5752 -11.5603 -11.5601
     3.4162   3.4163   4.4576   4.4577   6.6511   6.6511   7.6952   7.6953
     8.5601   8.5602   8.7212   8.7213   8.7837   8.7839   9.3218   9.3232
     9.3255   9.3269   9.4824   9.4825   9.9595   9.9596  10.3826  10.3828

          k =-0.5000 0.0000 0.2500 (  6018 PWs)   bands (ev):

   -35.2818 -35.2818 -35.2660 -35.2660 -35.2551 -35.2551 -35.2520 -35.2520
   -16.0607 -16.0604 -16.0495 -16.0491 -16.0048 -16.0045 -15.9583 -15.9582
   -11.9318 -11.9312 -11.8900 -11.8897 -11.7769 -11.7757 -11.7432 -11.7428
   -11.7076 -11.7072 -11.6711 -11.6708 -11.5747 -11.5744 -11.5587 -11.5585
     3.5001   3.5002   4.2792   4.2793   6.6537   6.6537   8.0564   8.0566
     8.5669   8.5673   8.6037   8.6038   8.7823   8.7826   9.1609   9.1611
     9.3570   9.3570   9.4609   9.4610   9.9923   9.9923  10.4683  10.4685

          k =-0.5000 0.0000 0.5000 (  6024 PWs)   bands (ev):

   -35.2700 -35.2700 -35.2671 -35.2671 -35.2601 -35.2601 -35.2577 -35.2577
   -16.0362 -16.0362 -16.0339 -16.0339 -16.0048 -16.0048 -16.0030 -16.0030
   -11.9014 -11.9014 -11.8999 -11.8999 -11.8004 -11.8004 -11.7993 -11.7993
   -11.6390 -11.6390 -11.6380 -11.6380 -11.5889 -11.5889 -11.5880 -11.5880
     3.8876   3.8876   3.9005   3.9005   7.5542   7.5542   7.5566   7.5566
     8.5382   8.5382   8.5402   8.5402   9.3599   9.3599   9.3636   9.3636
     9.5743   9.5743   9.5781   9.5781   9.7005   9.7005   9.7058   9.7058

          k =-0.5000 0.5000 0.0000 (  6024 PWs)   bands (ev):

   -35.2749 -35.2749 -35.2630 -35.2630 -35.2604 -35.2604 -35.2565 -35.2565
   -16.0389 -16.0389 -16.0362 -16.0362 -16.0168 -16.0168 -15.9853 -15.9853
   -11.9290 -11.9290 -11.8523 -11.8523 -11.8361 -11.8361 -11.7808 -11.7808
   -11.6527 -11.6527 -11.6133 -11.6133 -11.6089 -11.6089 -11.5834 -11.5834
     3.5041   3.5041   4.4738   4.4738   7.5128   7.5128   7.5788   7.5788
     7.5986   7.5986   9.2877   9.2877   9.3927   9.3927   9.4171   9.4171
     9.5255   9.5255   9.5648   9.5648   9.6035   9.6035   9.6522   9.6522

          k =-0.2500-0.2500 0.2500 (  6007 PWs)   bands (ev):

   -35.2869 -35.2869 -35.2578 -35.2578 -35.2563 -35.2563 -35.2540 -35.2540
   -16.0541 -16.0539 -16.0476 -16.0465 -16.0373 -16.0363 -15.9372 -15.9371
   -11.9453 -11.9447 -11.9106 -11.9102 -11.8275 -11.8272 -11.7327 -11.7322
   -11.6657 -11.6650 -11.6400 -11.6398 -11.6211 -11.6209 -11.4991 -11.4990
     3.3824   3.3826   4.2351   4.2352   6.8286   6.8288   7.8550   7.8552
     8.0927   8.0929   8.3914   8.3915   8.8416   8.8418   9.3251   9.3252
     9.5529   9.5531   9.7780   9.7781   9.9166   9.9167  10.7109  10.7112

          k =-0.2500 0.2500-0.2500 (  6007 PWs)   bands (ev):

   -35.2869 -35.2869 -35.2575 -35.2575 -35.2561 -35.2561 -35.2544 -35.2544
   -16.0549 -16.0545 -16.0470 -16.0462 -16.0370 -16.0360 -15.9372 -15.9371
   -11.9458 -11.9453 -11.9105 -11.9101 -11.8268 -11.8264 -11.7323 -11.7318
   -11.6665 -11.6656 -11.6398 -11.6395 -11.6219 -11.6215 -11.4987 -11.4987
     3.3835   3.3836   4.2330   4.2330   6.8325   6.8326   7.8541   7.8542
     8.0932   8.0934   8.3864   8.3865   8.8423   8.8425   9.3241   9.3242
     9.5549   9.5551   9.7770   9.7771   9.9165   9.9166  10.7109  10.7112

          k = 0.2500-0.2500-0.2500 (  6007 PWs)   bands (ev):

   -35.2869 -35.2869 -35.2575 -35.2575 -35.2561 -35.2561 -35.2544 -35.2544
   -16.0549 -16.0545 -16.0470 -16.0461 -16.0370 -16.0360 -15.9373 -15.9372
   -11.9456 -11.9452 -11.9103 -11.9100 -11.8269 -11.8265 -11.7322 -11.7318
   -11.6663 -11.6654 -11.6401 -11.6398 -11.6221 -11.6217 -11.4986 -11.4986
     3.3847   3.3848   4.2343   4.2344   6.8297   6.8299   7.8545   7.8547
     8.0907   8.0909   8.3849   8.3851   8.8415   8.8417   9.3257   9.3260
     9.5509   9.5513   9.7771   9.7772   9.9168   9.9169  10.7119  10.7122

          k =-0.2500 0.2500 0.5000 (  6004 PWs)   bands (ev):

   -35.2736 -35.2736 -35.2703 -35.2703 -35.2566 -35.2566 -35.2545 -35.2545
   -16.0531 -16.0530 -16.0440 -16.0438 -15.9953 -15.9950 -15.9880 -15.9879
   -11.9447 -11.9443 -11.8948 -11.8947 -11.8266 -11.8265 -11.7825 -11.7820
   -11.6624 -11.6623 -11.6226 -11.6225 -11.5733 -11.5733 -11.5371 -11.5370
     3.7716   3.7717   3.8694   3.8694   7.0359   7.0360   8.0197   8.0221
     8.1010   8.1033   8.9561   8.9563   8.9786   8.9788   9.0780   9.0782
     9.6155   9.6155   9.9321   9.9323  10.2075  10.2077  10.2298  10.2299

          k =-0.5000-0.2500 0.2500 (  6004 PWs)   bands (ev):

   -35.2781 -35.2781 -35.2646 -35.2646 -35.2566 -35.2566 -35.2556 -35.2556
   -16.0513 -16.0509 -16.0443 -16.0436 -16.0123 -16.0118 -15.9728 -15.9726
   -11.9438 -11.9432 -11.9062 -11.9058 -11.8096 -11.8089 -11.7868 -11.7864
   -11.6634 -11.6631 -11.6314 -11.6312 -11.5622 -11.5619 -11.5419 -11.5417
     3.5155   3.5155   4.2047   4.2047   6.9540   6.9540   7.6033   7.6034
     8.5620   8.5622   8.9030   8.9031   8.9578   8.9579   9.3984   9.3991
     9.4175   9.4184   9.7030   9.7033  10.0767  10.0768  10.4936  10.4936

          k = 0.5000-0.2500-0.2500 (  6004 PWs)   bands (ev):

   -35.2781 -35.2781 -35.2646 -35.2646 -35.2566 -35.2566 -35.2556 -35.2556
   -16.0513 -16.0509 -16.0442 -16.0436 -16.0123 -16.0119 -15.9728 -15.9727
   -11.9438 -11.9433 -11.9061 -11.9059 -11.8095 -11.8090 -11.7868 -11.7864
   -11.6633 -11.6631 -11.6314 -11.6312 -11.5622 -11.5619 -11.5419 -11.5417
     3.5154   3.5155   4.2046   4.2047   6.9541   6.9542   7.6034   7.6034
     8.5620   8.5622   8.9029   8.9030   8.9578   8.9579   9.3987   9.3989
     9.4178   9.4182   9.7030   9.7031  10.0766  10.0768  10.4935  10.4937

          k =-0.2500-0.5000 0.2500 (  6004 PWs)   bands (ev):

   -35.2781 -35.2781 -35.2645 -35.2645 -35.2570 -35.2570 -35.2552 -35.2552
   -16.0517 -16.0505 -16.0445 -16.0433 -16.0122 -16.0120 -15.9729 -15.9727
   -11.9436 -11.9432 -11.9063 -11.9056 -11.8095 -11.8089 -11.7868 -11.7865
   -11.6636 -11.6629 -11.6316 -11.6312 -11.5621 -11.5618 -11.5420 -11.5417
     3.5160   3.5162   4.2054   4.2055   6.9523   6.9524   7.6017   7.6018
     8.5625   8.5629   8.9029   8.9032   8.9572   8.9575   9.3991   9.3994
     9.4163   9.4167   9.7030   9.7032  10.0777  10.0778  10.4929  10.4930

          k =-0.2500 0.5000-0.2500 (  6004 PWs)   bands (ev):

   -35.2781 -35.2781 -35.2645 -35.2645 -35.2570 -35.2570 -35.2552 -35.2552
   -16.0517 -16.0505 -16.0445 -16.0433 -16.0121 -16.0120 -15.9728 -15.9726
   -11.9438 -11.9434 -11.9065 -11.9057 -11.8095 -11.8089 -11.7867 -11.7864
   -11.6634 -11.6627 -11.6314 -11.6310 -11.5623 -11.5619 -11.5419 -11.5417
     3.5149   3.5150   4.2038   4.2039   6.9558   6.9559   7.6047   7.6048
     8.5615   8.5618   8.9029   8.9031   8.9582   8.9584   9.3972   9.3974
     9.4198   9.4202   9.7037   9.7039  10.0762  10.0763  10.4934  10.4935

          k =-0.5000 0.2500 0.5000 (  6000 PWs)   bands (ev):

   -35.2689 -35.2689 -35.2660 -35.2660 -35.2612 -35.2612 -35.2587 -35.2587
   -16.0370 -16.0366 -16.0335 -16.0330 -16.0105 -16.0099 -16.0071 -16.0067
   -11.9336 -11.9329 -11.9283 -11.9276 -11.8402 -11.8395 -11.8347 -11.8339
   -11.6030 -11.6023 -11.5926 -11.5918 -11.5579 -11.5572 -11.5472 -11.5464
     3.7916   3.7917   3.8044   3.8044   7.3396   7.3396   7.3433   7.3434
     8.7875   8.7881   8.7917   8.7918   9.4764   9.4767   9.4847   9.4849
     9.8659   9.8663   9.8731   9.8733  10.2309  10.2309  10.2453  10.2454

          k =-0.5000 0.5000 0.2500 (  6000 PWs)   bands (ev):

   -35.2723 -35.2723 -35.2630 -35.2630 -35.2605 -35.2605 -35.2590 -35.2590
   -16.0371 -16.0367 -16.0356 -16.0350 -16.0202 -16.0194 -15.9950 -15.9947
   -11.9480 -11.9475 -11.9118 -11.9113 -11.8508 -11.8502 -11.8239 -11.8234
   -11.6103 -11.6098 -11.5848 -11.5844 -11.5643 -11.5637 -11.5434 -11.5431
     3.5300   3.5300   4.1388   4.1388   7.3534   7.3535   7.3614   7.3615
     8.1262   8.1265   9.3442   9.3444   9.4687   9.4693   9.4905   9.4905
     9.6708   9.6715  10.0525  10.0529  10.1847  10.1849  10.2281  10.2283

     the Fermi energy is     9.2066 ev

!    total energy              =   -2240.91732706 Ry
     Harris-Foulkes estimate   =   -2240.91732646 Ry
     estimated scf accuracy    <          3.8E-09 Ry

     total all-electron energy =    -90245.260730 Ry

     The total energy is the sum of the following terms:

     one-electron contribution =     -64.13109382 Ry
     hartree contribution      =      48.05281851 Ry
     xc contribution           =    -252.56155452 Ry
     ewald contribution        =    -224.22022991 Ry
     one-center paw contrib.   =   -1748.05420550 Ry
     smearing contrib. (-TS)   =      -0.00306182 Ry

     convergence has been achieved in  10 iterations

     Forces acting on atoms (cartesian axes, Ry/au):

     atom    1 type  1   force =     0.00036630   -0.00015124    0.00013526
     atom    2 type  1   force =     0.00016495    0.00034472    0.00024112
     atom    3 type  1   force =    -0.00021809   -0.00001417    0.00022261
     atom    4 type  1   force =    -0.00017790    0.00039680    0.00019277
     atom    5 type  2   force =    -0.00008378   -0.00081557   -0.00090584
     atom    6 type  2   force =    -0.00005148    0.00023946    0.00011408

     Total force =     0.001506     Total SCF correction =     0.000180
     SCF correction compared to forces is large: reduce conv_thr to get better values


     Computing stress (Cartesian axis) and pressure

     Message from routine stres:
     noncollinear stress + GGA not implemented

     Writing output data file 2302.save
 
     init_run     :      7.49s CPU      7.95s WALL (       2 calls)
     electrons    :    375.45s CPU    418.57s WALL (       8 calls)
     update_pot   :      1.86s CPU      3.39s WALL (       6 calls)
     forces       :     13.00s CPU     15.20s WALL (       8 calls)

     Called by init_run:
     wfcinit      :      6.35s CPU      6.70s WALL (       2 calls)
     potinit      :      0.48s CPU      0.50s WALL (       2 calls)

     Called by electrons:
     c_bands      :    318.79s CPU    354.34s WALL (      52 calls)
     sum_band     :     43.64s CPU     47.68s WALL (      52 calls)
     v_of_rho     :      0.21s CPU      0.22s WALL (      57 calls)
     newd         :      4.93s CPU      5.23s WALL (      57 calls)
     PAW_pot      :      9.35s CPU     10.21s WALL (      63 calls)
     mix_rho      :      0.20s CPU      0.21s WALL (      52 calls)

     Called by c_bands:
     init_us_2    :      1.14s CPU      1.24s WALL (    4320 calls)
     cegterg      :    292.58s CPU    324.88s WALL (    1872 calls)

     Called by sum_band:
     sum_band:bec :      9.14s CPU      9.29s WALL (    2088 calls)
     addusdens    :      1.56s CPU      1.63s WALL (      52 calls)

     Called by *egterg:
     h_psi        :    175.15s CPU    196.06s WALL (    8420 calls)
     s_psi        :     15.13s CPU     15.80s WALL (    8420 calls)
     g_psi        :      0.94s CPU      0.96s WALL (    6476 calls)
     cdiaghg      :     52.12s CPU     56.36s WALL (    8024 calls)

     Called by h_psi:
     h_psi:pot    :    173.80s CPU    194.66s WALL (    8420 calls)
     h_psi:calbec :     14.02s CPU     15.75s WALL (    8420 calls)
     vloc_psi     :    143.52s CPU    162.18s WALL (    8420 calls)
     add_vuspsi   :     16.20s CPU     16.68s WALL (    8420 calls)

     General routines
     calbec       :     22.40s CPU     26.28s WALL (   11660 calls)
     fft          :      0.54s CPU      0.63s WALL (    1145 calls)
     fftw         :    156.49s CPU    177.55s WALL ( 1466268 calls)
     davcio       :      0.01s CPU      0.03s WALL (      72 calls)
 
     Parallel routines
     fft_scatter  :     81.34s CPU     98.82s WALL ( 1467413 calls)
 
     PWSCF        :  6m45.26s CPU     8m39.22s WALL

 
   This run was terminated on:  17:13: 0  13Oct2022            

=------------------------------------------------------------------------------=
   JOB DONE.
=------------------------------------------------------------------------------=
Removing 2302 from /home/shaharpit/tmp
