
     Program PWSCF v.6.1 (svn rev. 13369) starts on 13Oct2022 at 17: 4:20 

     This program is part of the open-source Quantum ESPRESSO suite
     for quantum simulation of materials; please cite
         "P. Giannozzi et al., J. Phys.:Condens. Matter 21 395502 (2009);
          URL http://www.quantum-espresso.org", 
     in publications or presentations arising from this work. More details at
     http://www.quantum-espresso.org/quote

     Parallel version (MPI), running on    16 processors
     R & G space division:  proc/nbgrp/npool/nimage =      16
     Reading input from ./fcc_100.in

     Current dimensions of program PWSCF are:
     Max number of different atomic species (ntypx) = 10
     Max number of k-points (npk) =  40000
     Max angular momentum in pseudopotentials (lmaxx) =  3
               file Gd.rel-pbe-spdn-kjpaw_psl.1.0.0.UPF: wavefunction(s)  5P 5P renormalized
               file H.pbe-kjpaw_psl.0.1.UPF: wavefunction(s)  1S renormalized

     Subspace diagonalization in iterative solution of the eigenvalue problem:
     a serial algorithm will be used

 
     Parallelization info
     --------------------
     sticks:   dense  smooth     PW     G-vecs:    dense   smooth      PW
     Min          99      99     28                 2995     2995     467
     Max         100     100     30                 2998     2998     470
     Sum        1597    1597    465                47937    47937    7497
 


     bravais-lattice index     =            0
     lattice parameter (alat)  =      10.0212  a.u.
     unit-cell volume          =    1006.3788 (a.u.)^3
     number of atoms/cell      =           12
     number of atomic types    =            2
     number of electrons       =        52.00
     number of Kohn-Sham states=           62
     kinetic-energy cutoff     =      50.0000  Ry
     charge density cutoff     =     200.0000  Ry
     convergence threshold     =      1.0E-06
     mixing beta               =       0.7000
     number of iterations used =            8  plain     mixing
     Exchange-correlation      =  SLA  PW   PBX  PBC ( 1  4  3  4 0 0)
     nstep                     =          150

     Non magnetic calculation with spin-orbit


     celldm(1)=  10.021218  celldm(2)=   0.000000  celldm(3)=   0.000000
     celldm(4)=   0.000000  celldm(5)=   0.000000  celldm(6)=   0.000000

     crystal axes: (cart. coord. in units of alat)
               a(1) = (   1.000000   0.000000   0.000000 )  
               a(2) = (   0.000000   1.000000   0.000000 )  
               a(3) = (   0.000000   0.000000   1.000000 )  

     reciprocal axes: (cart. coord. in units 2 pi/alat)
               b(1) = (  1.000000  0.000000  0.000000 )  
               b(2) = (  0.000000  1.000000  0.000000 )  
               b(3) = (  0.000000  0.000000  1.000000 )  


     PseudoPot. # 1 for Gd read from file:
     /home/shaharpit/MeamGdH/dft/qe_potentials/Gd.rel-pbe-spdn-kjpaw_psl.1.0.0.UPF
     MD5 check sum: cf50ec46d1536b4a0251694df1946a53
     Pseudo is Projector augmented-wave + core cor, Zval = 11.0
     Generated using "atomic" code by A. Dal Corso  v.6.2.2
     Shape of augmentation charge: PSQ
     Using radial grid of 1263 points, 10 beta functions with: 
                l(1) =   0
                l(2) =   0
                l(3) =   1
                l(4) =   1
                l(5) =   1
                l(6) =   1
                l(7) =   2
                l(8) =   2
                l(9) =   2
               l(10) =   2
     Q(r) pseudized with 0 coefficients 


     PseudoPot. # 2 for  H read from file:
     /home/shaharpit/MeamGdH/dft/qe_potentials/H.pbe-kjpaw_psl.0.1.UPF
     MD5 check sum: fbb168fef676c0aaadbafd73f5b1efa8
     Pseudo is Projector augmented-wave, Zval =  1.0
     Generated using "atomic" code by A. Dal Corso  v.5.0.2 svn rev. 9415
     Shape of augmentation charge: PSQ
     Using radial grid of  929 points,  2 beta functions with: 
                l(1) =   0
                l(2) =   0
     Q(r) pseudized with 0 coefficients 


     atomic species   valence    mass     pseudopotential
        Gd            11.00   157.25000     Gd( 1.00)
        H              1.00     1.00794      H( 1.00)

      2 Sym. Ops. (no inversion) found



   Cartesian axes

     site n.     atom                  positions (alat units)
         1           Gd  tau(   1) = (   0.0000000   0.0000000   0.0000000  )
         2           Gd  tau(   2) = (   0.0000000   0.5000000   0.5000000  )
         3           Gd  tau(   3) = (   0.5000000   0.0000000   0.5000000  )
         4           Gd  tau(   4) = (   0.5000000   0.5000000   0.0000000  )
         5           H   tau(   5) = (   0.2500000   0.7539000   0.7539000  )
         6           H   tau(   6) = (   0.2500000   0.7501000   0.2500000  )
         7           H   tau(   7) = (   0.2500000   0.2500000   0.2500000  )
         8           H   tau(   8) = (   0.2500000   0.2500000   0.7501000  )
         9           H   tau(   9) = (   0.7501000   0.2500000   0.7501000  )
        10           H   tau(  10) = (   0.7501000   0.2500000   0.2500000  )
        11           H   tau(  11) = (   0.7501000   0.7501000   0.2500000  )
        12           H   tau(  12) = (   0.7501000   0.7501000   0.7501000  )

     number of k points=    24  gaussian smearing, width (Ry)=  0.0100
                       cart. coord. in units 2pi/alat
        k(    1) = (   0.0000000   0.0000000   0.0000000), wk =   0.0156250
        k(    2) = (   0.0000000   0.0000000   0.2500000), wk =   0.0625000
        k(    3) = (   0.0000000   0.0000000  -0.5000000), wk =   0.0312500
        k(    4) = (   0.0000000   0.2500000   0.2500000), wk =   0.0312500
        k(    5) = (   0.0000000   0.2500000  -0.5000000), wk =   0.0625000
        k(    6) = (   0.0000000  -0.5000000  -0.5000000), wk =   0.0156250
        k(    7) = (   0.2500000   0.2500000   0.2500000), wk =   0.0312500
        k(    8) = (   0.2500000   0.2500000  -0.5000000), wk =   0.0625000
        k(    9) = (   0.2500000  -0.5000000  -0.5000000), wk =   0.0312500
        k(   10) = (  -0.5000000  -0.5000000  -0.5000000), wk =   0.0156250
        k(   11) = (   0.2500000   0.0000000   0.0000000), wk =   0.0312500
        k(   12) = (  -0.5000000   0.0000000   0.0000000), wk =   0.0156250
        k(   13) = (   0.0000000   0.2500000  -0.2500000), wk =   0.0312500
        k(   14) = (   0.2500000   0.0000000  -0.2500000), wk =   0.0625000
        k(   15) = (  -0.2500000   0.0000000  -0.2500000), wk =   0.0625000
        k(   16) = (   0.2500000   0.0000000   0.5000000), wk =   0.0625000
        k(   17) = (  -0.5000000  -0.2500000   0.0000000), wk =   0.0625000
        k(   18) = (  -0.5000000   0.0000000   0.5000000), wk =   0.0312500
        k(   19) = (  -0.2500000   0.2500000  -0.2500000), wk =   0.0625000
        k(   20) = (   0.2500000  -0.2500000  -0.2500000), wk =   0.0312500
        k(   21) = (  -0.2500000   0.2500000   0.5000000), wk =   0.0625000
        k(   22) = (  -0.5000000  -0.2500000   0.2500000), wk =   0.0312500
        k(   23) = (   0.5000000  -0.2500000  -0.2500000), wk =   0.0312500
        k(   24) = (  -0.5000000   0.2500000   0.5000000), wk =   0.0625000

     Dense  grid:    47937 G-vectors     FFT dimensions: (  45,  45,  45)

     Estimated max dynamical RAM per process >      31.55MB

     Estimated total allocated dynamical RAM >     504.84MB

     Check: negative/imaginary core charge=   -0.000002    0.000000

     Initial potential from superposition of free atoms

     starting charge   51.92374, renormalised to   52.00000
     Starting wfc are  120 randomized atomic wfcs
     Checking if some PAW data can be deallocated... 

     total cpu time spent up to now is        3.4 secs

     per-process dynamical memory:    82.2 Mb

     Self-consistent Calculation

     iteration #  1     ecut=    50.00 Ry     beta=0.70
     Davidson diagonalization with overlap
     ethr =  1.00E-02,  avg # of iterations =  2.0

     total cpu time spent up to now is        7.2 secs

     total energy              =   -2248.31959869 Ry
     Harris-Foulkes estimate   =   -2248.64580728 Ry
     estimated scf accuracy    <       0.57578612 Ry

     iteration #  2     ecut=    50.00 Ry     beta=0.70
     Davidson diagonalization with overlap
     ethr =  1.11E-03,  avg # of iterations =  2.9

     total cpu time spent up to now is       11.4 secs

     total energy              =   -2248.42235124 Ry
     Harris-Foulkes estimate   =   -2248.42759062 Ry
     estimated scf accuracy    <       0.00866747 Ry

     iteration #  3     ecut=    50.00 Ry     beta=0.70
     Davidson diagonalization with overlap
     ethr =  1.67E-05,  avg # of iterations =  2.8

     total cpu time spent up to now is       16.4 secs

     total energy              =   -2248.42525555 Ry
     Harris-Foulkes estimate   =   -2248.42530183 Ry
     estimated scf accuracy    <       0.00029930 Ry

     iteration #  4     ecut=    50.00 Ry     beta=0.70
     Davidson diagonalization with overlap
     ethr =  5.76E-07,  avg # of iterations =  6.5

     total cpu time spent up to now is       22.9 secs

     total energy              =   -2248.42531480 Ry
     Harris-Foulkes estimate   =   -2248.42545593 Ry
     estimated scf accuracy    <       0.00033654 Ry

     iteration #  5     ecut=    50.00 Ry     beta=0.70
     Davidson diagonalization with overlap
     ethr =  5.76E-07,  avg # of iterations =  2.9

     total cpu time spent up to now is       27.2 secs

     total energy              =   -2248.42538085 Ry
     Harris-Foulkes estimate   =   -2248.42538130 Ry
     estimated scf accuracy    <       0.00000576 Ry

     iteration #  6     ecut=    50.00 Ry     beta=0.70
     Davidson diagonalization with overlap
     ethr =  1.11E-08,  avg # of iterations =  2.9

     total cpu time spent up to now is       32.1 secs

     End of self-consistent calculation

          k = 0.0000 0.0000 0.0000 (  6031 PWs)   bands (ev):

   -34.5742 -34.5742 -34.5213 -34.5213 -34.5143 -34.5143 -34.5039 -34.5039
   -15.3838 -15.3838 -15.3771 -15.3771 -15.3689 -15.3689 -15.1492 -15.1492
   -11.3152 -11.3152 -11.3119 -11.3119 -11.3092 -11.3092 -11.0026 -11.0026
   -10.9986 -10.9986 -10.9953 -10.9953 -10.7679 -10.7679 -10.7675 -10.7675
     1.7452   1.7452   4.4814   4.4814   4.4815   4.4815   4.4818   4.4818
     6.0828   6.0828   6.0850   6.0850   6.0869   6.0869   7.6393   7.6393
     7.6400   7.6400   7.6406   7.6406   8.1553   8.1553  10.6299  10.6299
    10.6315  10.6315  10.7906  10.7906  13.2274  13.2275

          k = 0.0000 0.0000 0.2500 (  6023 PWs)   bands (ev):

   -34.5659 -34.5659 -34.5251 -34.5251 -34.5176 -34.5176 -34.5053 -34.5053
   -15.3812 -15.3812 -15.3709 -15.3709 -15.3432 -15.3432 -15.1831 -15.1830
   -11.2873 -11.2871 -11.2819 -11.2816 -11.2412 -11.2411 -11.0395 -11.0392
   -11.0331 -11.0328 -10.9658 -10.9657 -10.8574 -10.8572 -10.8022 -10.8022
     2.1998   2.2000   4.6935   4.6938   4.6940   4.6946   4.7770   4.7771
     4.9996   4.9998   5.8322   5.8331   5.8344   5.8355   7.0171   7.0174
     8.0640   8.0647   8.0648   8.0655   8.6527   8.6528  10.9088  10.9089
    11.0378  11.0399  12.3183  12.3203  12.3482  12.3485

          k = 0.0000 0.0000-0.5000 (  5942 PWs)   bands (ev):

   -34.5504 -34.5504 -34.5388 -34.5388 -34.5187 -34.5187 -34.5059 -34.5059
   -15.3799 -15.3799 -15.3695 -15.3695 -15.2697 -15.2697 -15.2585 -15.2585
   -11.2488 -11.2488 -11.2399 -11.2399 -11.0913 -11.0913 -11.0818 -11.0818
   -11.0628 -11.0628 -11.0526 -11.0526 -10.8899 -10.8899 -10.8794 -10.8794
     3.4096   3.4096   3.4226   3.4226   5.1315   5.1315   5.1329   5.1329
     5.3577   5.3577   5.3595   5.3595   5.6409   5.6409   5.6588   5.6588
     8.7076   8.7076   8.7083   8.7083  10.3933  10.3933  10.4063  10.4063
    11.5184  11.5186  11.5236  11.5238  11.7909  11.7914

          k = 0.0000 0.2500 0.2500 (  6016 PWs)   bands (ev):

   -34.5588 -34.5588 -34.5253 -34.5253 -34.5217 -34.5217 -34.5078 -34.5078
   -15.3731 -15.3731 -15.3492 -15.3492 -15.3461 -15.3461 -15.2123 -15.2123
   -11.2695 -11.2695 -11.2374 -11.2371 -11.2368 -11.2366 -11.0399 -11.0399
   -10.9923 -10.9922 -10.9921 -10.9920 -10.9483 -10.9483 -10.8129 -10.8129
     2.5911   2.5911   4.7483   4.7483   4.8871   4.8879   4.8946   4.8951
     5.0386   5.0393   5.0471   5.0475   5.6902   5.6903   6.5044   6.5045
     8.4517   8.4518   8.8277   8.8277   8.8283   8.8283  10.8962  10.8963
    11.1895  11.1896  12.3949  12.3955  12.5730  12.5738

          k = 0.0000 0.2500-0.5000 (  6018 PWs)   bands (ev):

   -34.5463 -34.5463 -34.5349 -34.5349 -34.5227 -34.5227 -34.5097 -34.5097
   -15.3654 -15.3652 -15.3549 -15.3547 -15.2871 -15.2870 -15.2760 -15.2759
   -11.2445 -11.2442 -11.2398 -11.2394 -11.1113 -11.1109 -11.1059 -11.1055
   -11.0349 -11.0346 -11.0294 -11.0290 -10.8958 -10.8955 -10.8898 -10.8896
     3.6353   3.6359   3.6466   3.6472   4.8757   4.8779   4.8783   4.8806
     5.3381   5.3391   5.3404   5.3416   5.5974   5.5977   5.6120   5.6124
     9.0534   9.0535   9.0541   9.0543  10.2325  10.2329  10.2400  10.2404
    11.8744  11.8747  11.8785  11.8793  11.8985  11.9000

          k = 0.0000-0.5000-0.5000 (  6024 PWs)   bands (ev):

   -34.5398 -34.5398 -34.5291 -34.5291 -34.5291 -34.5291 -34.5155 -34.5155
   -15.3323 -15.3323 -15.3228 -15.3228 -15.3227 -15.3227 -15.3107 -15.3107
   -11.1951 -11.1951 -11.1946 -11.1946 -11.1939 -11.1939 -11.1936 -11.1936
   -10.9449 -10.9449 -10.9448 -10.9448 -10.9432 -10.9432 -10.9431 -10.9431
     4.2078   4.2078   4.2173   4.2173   4.2178   4.2178   4.2269   4.2269
     5.4658   5.4658   5.4757   5.4757   5.4758   5.4758   5.4867   5.4867
     9.8008   9.8008   9.8035   9.8035   9.8035   9.8036   9.8061   9.8061
    11.8669  11.8675  11.8705  11.8706  11.8739  11.8748

          k = 0.2500 0.2500 0.2500 (  6007 PWs)   bands (ev):

   -34.5531 -34.5531 -34.5281 -34.5281 -34.5217 -34.5217 -34.5108 -34.5108
   -15.3571 -15.3570 -15.3501 -15.3501 -15.3420 -15.3420 -15.2372 -15.2371
   -11.2508 -11.2506 -11.2472 -11.2466 -11.2442 -11.2439 -11.0321 -11.0320
   -10.9865 -10.9864 -10.9825 -10.9822 -10.9785 -10.9785 -10.8111 -10.8111
     2.8828   2.8831   4.5354   4.5363   4.5428   4.5428   4.5454   4.5459
     5.4708   5.4713   5.4727   5.4729   5.4805   5.4816   6.2524   6.2527
     9.0700   9.0701   9.0714   9.0715   9.0779   9.0781  10.9407  10.9408
    11.1398  11.1402  12.0207  12.0212  12.0222  12.0225

          k = 0.2500 0.2500-0.5000 (  6004 PWs)   bands (ev):

   -34.5437 -34.5437 -34.5324 -34.5324 -34.5253 -34.5253 -34.5122 -34.5122
   -15.3564 -15.3562 -15.3458 -15.3458 -15.3006 -15.3004 -15.2893 -15.2893
   -11.2588 -11.2585 -11.2544 -11.2541 -11.1649 -11.1644 -11.1598 -11.1597
   -10.9772 -10.9768 -10.9719 -10.9718 -10.8774 -10.8773 -10.8720 -10.8717
     3.6645   3.6652   3.6763   3.6766   4.3906   4.3916   4.3981   4.3988
     5.6965   5.6973   5.7018   5.7025   5.7384   5.7390   5.7525   5.7530
     9.4196   9.4199   9.4221   9.4224  10.3594  10.3598  10.3670  10.3675
    11.2550  11.2559  11.2573  11.2581  11.5374  11.5387

          k = 0.2500-0.5000-0.5000 (  6000 PWs)   bands (ev):

   -34.5398 -34.5398 -34.5291 -34.5291 -34.5291 -34.5291 -34.5154 -34.5154
   -15.3353 -15.3353 -15.3258 -15.3258 -15.3257 -15.3257 -15.3137 -15.3137
   -11.2394 -11.2394 -11.2391 -11.2387 -11.2333 -11.2330 -11.2326 -11.2326
   -10.8981 -10.8979 -10.8978 -10.8978 -10.8906 -10.8906 -10.8906 -10.8903
     3.8841   3.8843   3.8943   3.8943   3.8946   3.8946   3.9041   3.9044
     5.8749   5.8755   5.8849   5.8849   5.8852   5.8852   5.8956   5.8959
    10.1818  10.1824  10.1852  10.1853  10.1853  10.1854  10.1881  10.1887
    11.1069  11.1069  11.1077  11.1093  11.1101  11.1103

          k =-0.5000-0.5000-0.5000 (  6008 PWs)   bands (ev):

   -34.5398 -34.5398 -34.5290 -34.5290 -34.5290 -34.5290 -34.5154 -34.5154
   -15.3383 -15.3383 -15.3288 -15.3288 -15.3287 -15.3287 -15.3168 -15.3168
   -11.2718 -11.2718 -11.2712 -11.2712 -11.2647 -11.2647 -11.2639 -11.2639
   -10.8587 -10.8587 -10.8584 -10.8584 -10.8500 -10.8500 -10.8497 -10.8497
     3.6580   3.6580   3.6684   3.6684   3.6687   3.6687   3.6785   3.6785
     6.1908   6.1908   6.2003   6.2003   6.2007   6.2007   6.2112   6.2112
    10.6566  10.6566  10.6577  10.6577  10.6583  10.6583  10.6595  10.6595
    10.8432  10.8432  10.8443  10.8443  10.8450  10.8450

          k = 0.2500 0.0000 0.0000 (  6023 PWs)   bands (ev):

   -34.5657 -34.5657 -34.5271 -34.5271 -34.5143 -34.5143 -34.5067 -34.5067
   -15.3769 -15.3769 -15.3761 -15.3761 -15.3423 -15.3422 -15.1831 -15.1830
   -11.2851 -11.2846 -11.2841 -11.2841 -11.2412 -11.2410 -11.0367 -11.0367
   -11.0361 -11.0356 -10.9654 -10.9654 -10.8574 -10.8572 -10.8023 -10.8023
     2.1998   2.2001   4.6933   4.6938   4.6942   4.6946   4.7773   4.7774
     4.9992   4.9996   5.8323   5.8334   5.8343   5.8352   7.0171   7.0175
     8.0640   8.0645   8.0649   8.0658   8.6525   8.6527  10.9087  10.9088
    11.0373  11.0402  12.3186  12.3212  12.3477  12.3477

          k =-0.5000 0.0000 0.0000 (  5942 PWs)   bands (ev):

   -34.5470 -34.5470 -34.5441 -34.5441 -34.5143 -34.5143 -34.5084 -34.5084
   -15.3751 -15.3751 -15.3748 -15.3748 -15.2650 -15.2650 -15.2627 -15.2627
   -11.2448 -11.2448 -11.2440 -11.2440 -11.0883 -11.0883 -11.0862 -11.0862
   -11.0591 -11.0591 -11.0549 -11.0549 -10.8853 -10.8853 -10.8838 -10.8838
     3.4155   3.4155   3.4168   3.4168   5.1313   5.1313   5.1331   5.1331
     5.3584   5.3584   5.3589   5.3589   5.6489   5.6489   5.6507   5.6507
     8.7076   8.7076   8.7083   8.7083  10.3992  10.3992  10.4001  10.4002
    11.5205  11.5205  11.5213  11.5213  11.7899  11.7904

          k = 0.0000 0.2500-0.2500 (  6016 PWs)   bands (ev):

   -34.5588 -34.5588 -34.5253 -34.5253 -34.5217 -34.5217 -34.5078 -34.5078
   -15.3732 -15.3730 -15.3492 -15.3491 -15.3461 -15.3461 -15.2124 -15.2122
   -11.2696 -11.2694 -11.2372 -11.2371 -11.2368 -11.2366 -11.0403 -11.0396
   -10.9924 -10.9922 -10.9921 -10.9918 -10.9484 -10.9481 -10.8129 -10.8129
     2.5908   2.5913   4.7475   4.7488   4.8860   4.8869   4.8951   4.8964
     5.0369   5.0389   5.0476   5.0496   5.6903   5.6906   6.5043   6.5047
     8.4516   8.4518   8.8216   8.8219   8.8339   8.8343  10.8962  10.8963
    11.1882  11.1903  12.3948  12.3952  12.5732  12.5739

          k = 0.2500 0.0000-0.2500 (  6016 PWs)   bands (ev):

   -34.5587 -34.5587 -34.5276 -34.5276 -34.5189 -34.5189 -34.5085 -34.5085
   -15.3723 -15.3722 -15.3534 -15.3533 -15.3428 -15.3426 -15.2124 -15.2123
   -11.2696 -11.2692 -11.2395 -11.2395 -11.2343 -11.2341 -11.0404 -11.0400
   -10.9949 -10.9948 -10.9893 -10.9887 -10.9488 -10.9486 -10.8130 -10.8130
     2.5924   2.5928   4.7506   4.7514   4.8869   4.8903   4.8924   4.8962
     5.0364   5.0399   5.0435   5.0471   5.6882   5.6902   6.5018   6.5023
     8.4505   8.4516   8.8226   8.8231   8.8296   8.8297  10.8981  10.8985
    11.1899  11.1911  12.3944  12.3945  12.5727  12.5736

          k =-0.2500 0.0000-0.2500 (  6016 PWs)   bands (ev):

   -34.5587 -34.5587 -34.5276 -34.5276 -34.5189 -34.5189 -34.5085 -34.5085
   -15.3723 -15.3721 -15.3535 -15.3533 -15.3428 -15.3428 -15.2123 -15.2123
   -11.2696 -11.2691 -11.2399 -11.2397 -11.2346 -11.2345 -11.0401 -11.0398
   -10.9952 -10.9946 -10.9890 -10.9889 -10.9486 -10.9484 -10.8128 -10.8128
     2.5893   2.5897   4.7447   4.7455   4.8867   4.8904   4.8921   4.8955
     5.0392   5.0425   5.0462   5.0497   5.6908   5.6927   6.5067   6.5072
     8.4519   8.4531   8.8262   8.8264   8.8327   8.8332  10.8937  10.8940
    11.1879  11.1890  12.3952  12.3954  12.5668  12.5703

          k = 0.2500 0.0000 0.5000 (  6018 PWs)   bands (ev):

   -34.5463 -34.5463 -34.5349 -34.5349 -34.5227 -34.5227 -34.5097 -34.5097
   -15.3654 -15.3652 -15.3549 -15.3547 -15.2871 -15.2870 -15.2760 -15.2759
   -11.2445 -11.2442 -11.2398 -11.2395 -11.1109 -11.1107 -11.1055 -11.1052
   -11.0352 -11.0349 -11.0297 -11.0294 -10.8956 -10.8954 -10.8897 -10.8895
     3.6348   3.6352   3.6472   3.6477   4.8737   4.8748   4.8811   4.8824
     5.3370   5.3387   5.3411   5.3432   5.5969   5.5976   5.6122   5.6129
     9.0524   9.0529   9.0547   9.0552  10.2311  10.2314  10.2413  10.2416
    11.8730  11.8736  11.8813  11.8818  11.9005  11.9015

          k =-0.5000-0.2500 0.0000 (  6018 PWs)   bands (ev):

   -34.5438 -34.5438 -34.5397 -34.5397 -34.5186 -34.5186 -34.5116 -34.5116
   -15.3606 -15.3605 -15.3603 -15.3602 -15.2825 -15.2825 -15.2798 -15.2798
   -11.2426 -11.2420 -11.2417 -11.2416 -11.1087 -11.1084 -11.1082 -11.1080
   -11.0328 -11.0327 -11.0316 -11.0312 -10.8931 -10.8930 -10.8923 -10.8919
     3.6384   3.6389   3.6436   3.6441   4.8734   4.8749   4.8810   4.8826
     5.3366   5.3385   5.3414   5.3433   5.6022   5.6029   5.6070   5.6076
     9.0524   9.0530   9.0546   9.0552  10.2327  10.2330  10.2397  10.2399
    11.8738  11.8744  11.8797  11.8814  11.8980  11.8998

          k =-0.5000 0.0000 0.5000 (  6024 PWs)   bands (ev):

   -34.5398 -34.5398 -34.5291 -34.5291 -34.5291 -34.5291 -34.5155 -34.5155
   -15.3323 -15.3323 -15.3228 -15.3228 -15.3227 -15.3227 -15.3107 -15.3107
   -11.1991 -11.1991 -11.1986 -11.1986 -11.1899 -11.1899 -11.1893 -11.1893
   -10.9494 -10.9494 -10.9491 -10.9491 -10.9390 -10.9390 -10.9388 -10.9388
     4.2062   4.2062   4.2175   4.2175   4.2177   4.2177   4.2281   4.2281
     5.4669   5.4669   5.4756   5.4756   5.4761   5.4761   5.4858   5.4858
     9.7997   9.7997   9.8021   9.8021   9.8049   9.8049   9.8071   9.8071
    11.8668  11.8668  11.8703  11.8703  11.8710  11.8710

          k =-0.2500 0.2500-0.2500 (  6007 PWs)   bands (ev):

   -34.5531 -34.5531 -34.5281 -34.5281 -34.5217 -34.5217 -34.5108 -34.5108
   -15.3570 -15.3569 -15.3502 -15.3501 -15.3420 -15.3419 -15.2373 -15.2371
   -11.2507 -11.2504 -11.2470 -11.2469 -11.2437 -11.2433 -11.0323 -11.0321
   -10.9869 -10.9864 -10.9827 -10.9822 -10.9786 -10.9783 -10.8112 -10.8112
     2.8864   2.8870   4.5341   4.5356   4.5427   4.5428   4.5497   4.5512
     5.4663   5.4670   5.4727   5.4727   5.4788   5.4795   6.2467   6.2474
     9.0658   9.0662   9.0717   9.0717   9.0771   9.0775  10.9422  10.9422
    11.1411  11.1418  12.0193  12.0198  12.0207  12.0216

          k = 0.2500-0.2500-0.2500 (  6007 PWs)   bands (ev):

   -34.5530 -34.5530 -34.5281 -34.5281 -34.5217 -34.5217 -34.5108 -34.5108
   -15.3569 -15.3569 -15.3501 -15.3501 -15.3420 -15.3419 -15.2373 -15.2372
   -11.2501 -11.2499 -11.2473 -11.2468 -11.2434 -11.2433 -11.0325 -11.0323
   -10.9865 -10.9865 -10.9828 -10.9825 -10.9789 -10.9786 -10.8114 -10.8114
     2.8903   2.8906   4.5396   4.5401   4.5429   4.5430   4.5492   4.5501
     5.4638   5.4648   5.4726   5.4726   5.4743   5.4748   6.2415   6.2419
     9.0651   9.0654   9.0720   9.0720   9.0732   9.0733  10.9438  10.9439
    11.1429  11.1434  12.0183  12.0187  12.0198  12.0201

          k =-0.2500 0.2500 0.5000 (  6004 PWs)   bands (ev):

   -34.5436 -34.5436 -34.5324 -34.5324 -34.5253 -34.5253 -34.5122 -34.5122
   -15.3562 -15.3562 -15.3458 -15.3456 -15.3005 -15.3005 -15.2895 -15.2893
   -11.2584 -11.2582 -11.2540 -11.2537 -11.1648 -11.1647 -11.1602 -11.1597
   -10.9771 -10.9770 -10.9722 -10.9717 -10.8777 -10.8774 -10.8721 -10.8720
     3.6708   3.6711   3.6822   3.6829   4.3871   4.3879   4.3944   4.3955
     5.6986   5.6996   5.7037   5.7043   5.7320   5.7327   5.7450   5.7458
     9.4191   9.4194   9.4217   9.4219  10.3599  10.3603  10.3676  10.3680
    11.2553  11.2562  11.2576  11.2584  11.5332  11.5344

          k =-0.5000-0.2500 0.2500 (  6004 PWs)   bands (ev):

   -34.5419 -34.5419 -34.5366 -34.5366 -34.5217 -34.5217 -34.5134 -34.5134
   -15.3519 -15.3519 -15.3511 -15.3510 -15.2961 -15.2961 -15.2928 -15.2928
   -11.2569 -11.2565 -11.2561 -11.2558 -11.1626 -11.1622 -11.1621 -11.1619
   -10.9752 -10.9749 -10.9742 -10.9739 -10.8751 -10.8750 -10.8745 -10.8740
     3.6729   3.6734   3.6743   3.6743   4.3861   4.3869   4.3988   4.3997
     5.6966   5.6974   5.7048   5.7054   5.7405   5.7413   5.7424   5.7435
     9.4183   9.4185   9.4230   9.4232  10.3630  10.3637  10.3639  10.3644
    11.2549  11.2562  11.2568  11.2579  11.5341  11.5365

          k = 0.5000-0.2500-0.2500 (  6004 PWs)   bands (ev):

   -34.5419 -34.5419 -34.5366 -34.5366 -34.5217 -34.5217 -34.5134 -34.5134
   -15.3519 -15.3519 -15.3511 -15.3511 -15.2961 -15.2961 -15.2928 -15.2928
   -11.2567 -11.2565 -11.2561 -11.2559 -11.1627 -11.1625 -11.1619 -11.1618
   -10.9750 -10.9749 -10.9741 -10.9741 -10.8750 -10.8750 -10.8742 -10.8742
     3.6679   3.6681   3.6792   3.6795   4.3926   4.3927   4.3934   4.3935
     5.6985   5.6995   5.7011   5.7022   5.7370   5.7371   5.7479   5.7480
     9.4203   9.4205   9.4210   9.4212  10.3601  10.3603  10.3670  10.3672
    11.2547  11.2547  11.2588  11.2589  11.5359  11.5360

          k =-0.5000 0.2500 0.5000 (  6000 PWs)   bands (ev):

   -34.5398 -34.5398 -34.5291 -34.5291 -34.5291 -34.5291 -34.5154 -34.5154
   -15.3353 -15.3353 -15.3258 -15.3258 -15.3257 -15.3257 -15.3137 -15.3137
   -11.2402 -11.2402 -11.2398 -11.2395 -11.2326 -11.2322 -11.2318 -11.2317
   -10.8991 -10.8987 -10.8986 -10.8986 -10.8898 -10.8898 -10.8897 -10.8894
     3.8835   3.8842   3.8943   3.8943   3.8946   3.8946   3.9041   3.9048
     5.8758   5.8764   5.8848   5.8849   5.8852   5.8853   5.8947   5.8953
    10.1813  10.1817  10.1840  10.1841  10.1864  10.1866  10.1887  10.1890
    11.1075  11.1077  11.1086  11.1092  11.1094  11.1108

     the Fermi energy is     9.4735 ev

!    total energy              =   -2248.42538264 Ry
     Harris-Foulkes estimate   =   -2248.42538295 Ry
     estimated scf accuracy    <       0.00000075 Ry

     total all-electron energy =    -90252.768759 Ry

     The total energy is the sum of the following terms:

     one-electron contribution =     -47.14991778 Ry
     hartree contribution      =      44.09145467 Ry
     xc contribution           =    -257.25428208 Ry
     ewald contribution        =    -240.05108433 Ry
     one-center paw contrib.   =   -1748.05972926 Ry
     smearing contrib. (-TS)   =      -0.00182386 Ry

     convergence has been achieved in   6 iterations

     Forces acting on atoms (cartesian axes, Ry/au):

     atom    1 type  1   force =    -0.00021244    0.00083541    0.00083541
     atom    2 type  1   force =     0.00036015    0.00065782    0.00065782
     atom    3 type  1   force =    -0.00001693    0.00049235    0.00044250
     atom    4 type  1   force =    -0.00001693    0.00044250    0.00049235
     atom    5 type  2   force =     0.00016282   -0.00284840   -0.00284840
     atom    6 type  2   force =     0.00000279   -0.00007481    0.00032094
     atom    7 type  2   force =     0.00000593    0.00004283    0.00004283
     atom    8 type  2   force =     0.00000279    0.00032094   -0.00007481
     atom    9 type  2   force =    -0.00007128    0.00004373   -0.00012619
     atom   10 type  2   force =    -0.00007709    0.00028973    0.00028973
     atom   11 type  2   force =    -0.00007128   -0.00012619    0.00004373
     atom   12 type  2   force =    -0.00006853   -0.00007592   -0.00007592

     Total force =     0.004475     Total SCF correction =     0.000759
     SCF correction compared to forces is large: reduce conv_thr to get better values


     Computing stress (Cartesian axis) and pressure

     Message from routine stres:
     noncollinear stress + GGA not implemented

     BFGS Geometry Optimization

     number of scf cycles    =   1
     number of bfgs steps    =   0

     enthalpy new            =   -2248.4253826411 Ry

     new trust radius        =       0.0040315289 bohr
     new conv_thr            =       0.0000010000 Ry

     new unit-cell volume =   1006.37882 a.u.^3 (   149.12995 Ang^3 )
     density =      7.09360 g/cm^3

CELL_PARAMETERS (angstrom)
   5.303000000   0.000000000   0.000000000
   0.000000000   5.303000000   0.000000000
   0.000000000   0.000000000   5.303000000

ATOMIC_POSITIONS (crystal)
Gd      -0.000021199   0.000083364   0.000083364
Gd       0.000035939   0.500065642   0.500065642
Gd       0.499998310   0.000049131   0.500044157
Gd       0.499998310   0.500044157   0.000049131
H        0.250016247   0.753615764   0.753615764
H        0.250000279   0.750092535   0.250032026
H        0.250000591   0.250004274   0.250004274
H        0.250000279   0.250032026   0.750092535
H        0.750092887   0.250004364   0.750087408
H        0.750092308   0.250028912   0.250028912
H        0.750092887   0.750087408   0.250004364
H        0.750093162   0.750092424   0.750092424



     Writing output data file 2300.save
     NEW-OLD atomic charge density approx. for the potential

     Check: negative/imaginary core charge=   -0.000002    0.000000

     total cpu time spent up to now is       35.5 secs

     per-process dynamical memory:   121.6 Mb

     Self-consistent Calculation

     iteration #  1     ecut=    50.00 Ry     beta=0.70
     Davidson diagonalization with overlap
     ethr =  1.00E-06,  avg # of iterations =  2.0

     Threshold (ethr) on eigenvalues was too large:
     Diagonalizing with lowered threshold

     Davidson diagonalization with overlap
     ethr =  2.05E-09,  avg # of iterations =  3.4

     total cpu time spent up to now is       44.0 secs

     total energy              =   -2248.42540164 Ry
     Harris-Foulkes estimate   =   -2248.42540511 Ry
     estimated scf accuracy    <       0.00000110 Ry

     iteration #  2     ecut=    50.00 Ry     beta=0.70
     Davidson diagonalization with overlap
     ethr =  2.12E-09,  avg # of iterations =  2.0

     total cpu time spent up to now is       48.3 secs

     End of self-consistent calculation

          k = 0.0000 0.0000 0.0000 (  6031 PWs)   bands (ev):

   -34.5715 -34.5715 -34.5179 -34.5179 -34.5116 -34.5116 -34.5033 -34.5033
   -15.3807 -15.3807 -15.3748 -15.3748 -15.3682 -15.3682 -15.1472 -15.1472
   -11.3129 -11.3129 -11.3103 -11.3103 -11.3079 -11.3079 -11.0001 -11.0001
   -10.9970 -10.9970 -10.9941 -10.9941 -10.7661 -10.7661 -10.7658 -10.7658
     1.7455   1.7455   4.4817   4.4817   4.4818   4.4818   4.4821   4.4821
     6.0834   6.0834   6.0854   6.0854   6.0871   6.0871   7.6396   7.6396
     7.6402   7.6402   7.6409   7.6409   8.1554   8.1554  10.6307  10.6307
    10.6322  10.6322  10.7913  10.7913  13.2284  13.2285

          k = 0.0000 0.0000 0.2500 (  6023 PWs)   bands (ev):

   -34.5631 -34.5631 -34.5220 -34.5220 -34.5146 -34.5146 -34.5045 -34.5045
   -15.3782 -15.3782 -15.3695 -15.3695 -15.3415 -15.3414 -15.1812 -15.1811
   -11.2851 -11.2849 -11.2805 -11.2803 -11.2394 -11.2393 -11.0371 -11.0369
   -11.0318 -11.0317 -10.9639 -10.9639 -10.8556 -10.8555 -10.8004 -10.8004
     2.2001   2.2003   4.6939   4.6942   4.6943   4.6948   4.7773   4.7774
     4.9999   5.0001   5.8327   5.8335   5.8348   5.8357   7.0174   7.0177
     8.0643   8.0650   8.0651   8.0658   8.6531   8.6532  10.9096  10.9096
    11.0388  11.0404  12.3192  12.3209  12.3489  12.3491

          k = 0.0000 0.0000-0.5000 (  5942 PWs)   bands (ev):

   -34.5468 -34.5468 -34.5368 -34.5368 -34.5155 -34.5155 -34.5050 -34.5050
   -15.3770 -15.3770 -15.3682 -15.3682 -15.2668 -15.2668 -15.2575 -15.2575
   -11.2463 -11.2463 -11.2389 -11.2389 -11.0885 -11.0885 -11.0805 -11.0805
   -11.0603 -11.0603 -11.0521 -11.0521 -10.8873 -10.8873 -10.8784 -10.8784
     3.4105   3.4105   3.4224   3.4224   5.1320   5.1320   5.1331   5.1331
     5.3581   5.3581   5.3598   5.3598   5.6419   5.6419   5.6583   5.6583
     8.7080   8.7080   8.7085   8.7085  10.3946  10.3946  10.4060  10.4060
    11.5195  11.5196  11.5238  11.5238  11.7915  11.7918

          k = 0.0000 0.2500 0.2500 (  6016 PWs)   bands (ev):

   -34.5559 -34.5559 -34.5222 -34.5222 -34.5190 -34.5190 -34.5071 -34.5071
   -15.3705 -15.3705 -15.3469 -15.3469 -15.3449 -15.3449 -15.2104 -15.2104
   -11.2677 -11.2677 -11.2356 -11.2353 -11.2351 -11.2349 -11.0381 -11.0381
   -10.9904 -10.9904 -10.9901 -10.9901 -10.9468 -10.9468 -10.8111 -10.8111
     2.5914   2.5914   4.7485   4.7486   4.8877   4.8885   4.8948   4.8950
     5.0392   5.0399   5.0472   5.0475   5.6906   5.6907   6.5047   6.5048
     8.4521   8.4522   8.8281   8.8282   8.8286   8.8286  10.8969  10.8970
    11.1903  11.1903  12.3957  12.3962  12.5737  12.5744

          k = 0.0000 0.2500-0.5000 (  6018 PWs)   bands (ev):

   -34.5427 -34.5427 -34.5328 -34.5328 -34.5196 -34.5196 -34.5090 -34.5090
   -15.3624 -15.3623 -15.3536 -15.3535 -15.2843 -15.2842 -15.2751 -15.2749
   -11.2423 -11.2420 -11.2383 -11.2380 -11.1089 -11.1086 -11.1044 -11.1041
   -11.0327 -11.0324 -11.0282 -11.0279 -10.8935 -10.8933 -10.8885 -10.8883
     3.6361   3.6366   3.6465   3.6470   4.8762   4.8782   4.8786   4.8807
     5.3386   5.3394   5.3408   5.3418   5.5983   5.5986   5.6117   5.6121
     9.0539   9.0540   9.0544   9.0545  10.2334  10.2338  10.2400  10.2404
    11.8755  11.8758  11.8788  11.8797  11.8995  11.9009

          k = 0.0000-0.5000-0.5000 (  6024 PWs)   bands (ev):

   -34.5359 -34.5359 -34.5264 -34.5264 -34.5264 -34.5264 -34.5153 -34.5153
   -15.3289 -15.3289 -15.3205 -15.3205 -15.3204 -15.3204 -15.3108 -15.3108
   -11.1930 -11.1930 -11.1926 -11.1926 -11.1924 -11.1924 -11.1920 -11.1920
   -10.9428 -10.9428 -10.9426 -10.9426 -10.9418 -10.9418 -10.9418 -10.9418
     4.2089   4.2089   4.2175   4.2175   4.2181   4.2181   4.2265   4.2265
     5.4669   5.4669   5.4759   5.4759   5.4760   5.4760   5.4864   5.4864
     9.8017   9.8017   9.8040   9.8040   9.8040   9.8040   9.8059   9.8059
    11.8683  11.8688  11.8714  11.8714  11.8740  11.8746

          k = 0.2500 0.2500 0.2500 (  6007 PWs)   bands (ev):

   -34.5500 -34.5500 -34.5248 -34.5248 -34.5189 -34.5189 -34.5103 -34.5103
   -15.3539 -15.3539 -15.3478 -15.3478 -15.3413 -15.3413 -15.2353 -15.2353
   -11.2483 -11.2482 -11.2454 -11.2450 -11.2429 -11.2426 -11.0301 -11.0301
   -10.9840 -10.9839 -10.9808 -10.9806 -10.9776 -10.9775 -10.8093 -10.8093
     2.8835   2.8837   4.5363   4.5371   4.5431   4.5432   4.5455   4.5459
     5.4713   5.4717   5.4730   5.4731   5.4802   5.4812   6.2522   6.2525
     9.0706   9.0707   9.0718   9.0718   9.0778   9.0780  10.9416  10.9417
    11.1407  11.1410  12.0215  12.0219  12.0227  12.0229

          k = 0.2500 0.2500-0.5000 (  6004 PWs)   bands (ev):

   -34.5400 -34.5400 -34.5301 -34.5301 -34.5223 -34.5223 -34.5116 -34.5116
   -15.3534 -15.3532 -15.3445 -15.3445 -15.2977 -15.2976 -15.2885 -15.2884
   -11.2566 -11.2564 -11.2529 -11.2527 -11.1627 -11.1622 -11.1585 -11.1584
   -10.9749 -10.9746 -10.9706 -10.9705 -10.8753 -10.8751 -10.8707 -10.8705
     3.6656   3.6663   3.6764   3.6767   4.3911   4.3920   4.3980   4.3986
     5.6973   5.6980   5.7022   5.7027   5.7390   5.7395   5.7519   5.7523
     9.4201   9.4204   9.4224   9.4227  10.3605  10.3608  10.3672  10.3676
    11.2559  11.2566  11.2580  11.2586  11.5379  11.5392

          k = 0.2500-0.5000-0.5000 (  6000 PWs)   bands (ev):

   -34.5358 -34.5358 -34.5263 -34.5263 -34.5263 -34.5263 -34.5153 -34.5153
   -15.3319 -15.3319 -15.3235 -15.3235 -15.3234 -15.3234 -15.3139 -15.3138
   -11.2370 -11.2370 -11.2367 -11.2365 -11.2320 -11.2318 -11.2314 -11.2314
   -10.8957 -10.8955 -10.8954 -10.8954 -10.8895 -10.8895 -10.8894 -10.8892
     3.8853   3.8854   3.8946   3.8946   3.8949   3.8949   3.9035   3.9038
     5.8761   5.8766   5.8852   5.8853   5.8854   5.8855   5.8951   5.8954
    10.1827  10.1833  10.1857  10.1858  10.1859  10.1860  10.1882  10.1887
    11.1079  11.1080  11.1086  11.1101  11.1109  11.1110

          k =-0.5000-0.5000-0.5000 (  6008 PWs)   bands (ev):

   -34.5358 -34.5358 -34.5263 -34.5263 -34.5263 -34.5263 -34.5153 -34.5153
   -15.3349 -15.3349 -15.3265 -15.3265 -15.3264 -15.3264 -15.3169 -15.3169
   -11.2694 -11.2694 -11.2688 -11.2688 -11.2635 -11.2635 -11.2629 -11.2629
   -10.8562 -10.8562 -10.8559 -10.8559 -10.8489 -10.8489 -10.8487 -10.8487
     3.6592   3.6592   3.6686   3.6686   3.6690   3.6690   3.6779   3.6779
     6.1920   6.1920   6.2006   6.2006   6.2010   6.2010   6.2106   6.2106
    10.6575  10.6575  10.6585  10.6585  10.6589  10.6589  10.6600  10.6600
    10.8441  10.8441  10.8450  10.8450  10.8457  10.8457

          k = 0.2500 0.0000 0.0000 (  6023 PWs)   bands (ev):

   -34.5630 -34.5630 -34.5237 -34.5237 -34.5115 -34.5115 -34.5060 -34.5060
   -15.3746 -15.3746 -15.3738 -15.3738 -15.3408 -15.3407 -15.1812 -15.1811
   -11.2830 -11.2827 -11.2825 -11.2825 -11.2394 -11.2393 -11.0347 -11.0347
   -11.0344 -11.0340 -10.9637 -10.9637 -10.8556 -10.8554 -10.8005 -10.8005
     2.2001   2.2003   4.6937   4.6942   4.6945   4.6949   4.7776   4.7777
     4.9996   4.9999   5.8328   5.8338   5.8346   5.8355   7.0174   7.0177
     8.0645   8.0648   8.0651   8.0661   8.6529   8.6531  10.9095  10.9096
    11.0383  11.0407  12.3194  12.3216  12.3485  12.3485

          k =-0.5000 0.0000 0.0000 (  5942 PWs)   bands (ev):

   -34.5438 -34.5438 -34.5413 -34.5413 -34.5115 -34.5115 -34.5076 -34.5076
   -15.3729 -15.3729 -15.3727 -15.3727 -15.2627 -15.2627 -15.2613 -15.2613
   -11.2428 -11.2428 -11.2425 -11.2425 -11.0859 -11.0859 -11.0841 -11.0841
   -11.0570 -11.0570 -11.0543 -11.0543 -10.8832 -10.8832 -10.8824 -10.8824
     3.4158   3.4158   3.4172   3.4172   5.1318   5.1318   5.1333   5.1333
     5.3588   5.3588   5.3592   5.3592   5.6492   5.6492   5.6509   5.6509
     8.7079   8.7079   8.7086   8.7086  10.3999  10.3999  10.4005  10.4005
    11.5212  11.5212  11.5218  11.5219  11.7906  11.7911

          k = 0.0000 0.2500-0.2500 (  6016 PWs)   bands (ev):

   -34.5559 -34.5559 -34.5222 -34.5222 -34.5190 -34.5190 -34.5071 -34.5071
   -15.3706 -15.3704 -15.3469 -15.3468 -15.3450 -15.3449 -15.2105 -15.2104
   -11.2677 -11.2676 -11.2354 -11.2353 -11.2351 -11.2349 -11.0384 -11.0379
   -10.9905 -10.9903 -10.9902 -10.9899 -10.9469 -10.9466 -10.8112 -10.8111
     2.5911   2.5916   4.7479   4.7490   4.8866   4.8874   4.8953   4.8965
     5.0376   5.0394   5.0476   5.0495   5.6907   5.6909   6.5046   6.5049
     8.4520   8.4522   8.8224   8.8227   8.8338   8.8342  10.8969  10.8970
    11.1892  11.1909  12.3956  12.3960  12.5739  12.5745

          k = 0.2500 0.0000-0.2500 (  6016 PWs)   bands (ev):

   -34.5558 -34.5558 -34.5242 -34.5242 -34.5163 -34.5163 -34.5078 -34.5078
   -15.3699 -15.3698 -15.3506 -15.3506 -15.3418 -15.3417 -15.2105 -15.2104
   -11.2677 -11.2674 -11.2374 -11.2373 -11.2330 -11.2327 -11.0385 -11.0382
   -10.9926 -10.9926 -10.9880 -10.9874 -10.9471 -10.9470 -10.8112 -10.8112
     2.5926   2.5929   4.7507   4.7514   4.8876   4.8907   4.8927   4.8961
     5.0373   5.0405   5.0438   5.0472   5.6888   5.6905   6.5023   6.5028
     8.4510   8.4519   8.8234   8.8239   8.8298   8.8299  10.8987  10.8990
    11.1907  11.1917  12.3952  12.3954  12.5735  12.5743

          k =-0.2500 0.0000-0.2500 (  6016 PWs)   bands (ev):

   -34.5558 -34.5558 -34.5242 -34.5242 -34.5163 -34.5163 -34.5078 -34.5078
   -15.3699 -15.3697 -15.3508 -15.3506 -15.3418 -15.3418 -15.2105 -15.2104
   -11.2677 -11.2674 -11.2377 -11.2375 -11.2332 -11.2331 -11.0382 -11.0380
   -10.9928 -10.9923 -10.9877 -10.9876 -10.9470 -10.9468 -10.8111 -10.8110
     2.5898   2.5901   4.7453   4.7460   4.8873   4.8908   4.8924   4.8956
     5.0397   5.0429   5.0462   5.0496   5.6912   5.6928   6.5068   6.5072
     8.4523   8.4532   8.8267   8.8269   8.8327   8.8332  10.8946  10.8949
    11.1889  11.1897  12.3960  12.3962  12.5681  12.5713

          k = 0.2500 0.0000 0.5000 (  6018 PWs)   bands (ev):

   -34.5427 -34.5427 -34.5328 -34.5328 -34.5196 -34.5196 -34.5090 -34.5090
   -15.3624 -15.3623 -15.3536 -15.3535 -15.2843 -15.2842 -15.2751 -15.2749
   -11.2423 -11.2421 -11.2383 -11.2381 -11.1087 -11.1084 -11.1042 -11.1040
   -11.0329 -11.0327 -11.0284 -11.0282 -10.8934 -10.8933 -10.8884 -10.8882
     3.6357   3.6360   3.6470   3.6474   4.8744   4.8753   4.8812   4.8823
     5.3377   5.3391   5.3414   5.3432   5.5979   5.5984   5.6119   5.6125
     9.0529   9.0533   9.0550   9.0554  10.2322  10.2324  10.2413  10.2416
    11.8742  11.8747  11.8816  11.8820  11.9014  11.9023

          k =-0.5000-0.2500 0.0000 (  6018 PWs)   bands (ev):

   -34.5404 -34.5404 -34.5369 -34.5369 -34.5159 -34.5159 -34.5109 -34.5109
   -15.3585 -15.3584 -15.3580 -15.3579 -15.2802 -15.2802 -15.2785 -15.2785
   -11.2406 -11.2403 -11.2401 -11.2399 -11.1068 -11.1066 -11.1063 -11.1061
   -11.0308 -11.0307 -11.0301 -11.0298 -10.8911 -10.8911 -10.8908 -10.8905
     3.6390   3.6394   3.6438   3.6442   4.8742   4.8755   4.8811   4.8825
     5.3372   5.3389   5.3418   5.3432   5.6027   5.6034   5.6071   5.6076
     9.0529   9.0534   9.0550   9.0554  10.2336  10.2338  10.2399  10.2401
    11.8748  11.8754  11.8801  11.8818  11.8992  11.9006

          k =-0.5000 0.0000 0.5000 (  6024 PWs)   bands (ev):

   -34.5359 -34.5359 -34.5264 -34.5264 -34.5264 -34.5264 -34.5153 -34.5153
   -15.3289 -15.3289 -15.3205 -15.3205 -15.3204 -15.3204 -15.3108 -15.3108
   -11.1965 -11.1965 -11.1961 -11.1961 -11.1889 -11.1889 -11.1884 -11.1884
   -10.9467 -10.9467 -10.9465 -10.9465 -10.9381 -10.9381 -10.9379 -10.9379
     4.2075   4.2075   4.2178   4.2178   4.2181   4.2181   4.2275   4.2275
     5.4677   5.4677   5.4759   5.4759   5.4767   5.4767   5.4853   5.4853
     9.8005   9.8005   9.8026   9.8026   9.8052   9.8052   9.8071   9.8071
    11.8682  11.8682  11.8713  11.8713  11.8719  11.8719

          k =-0.2500 0.2500-0.2500 (  6007 PWs)   bands (ev):

   -34.5500 -34.5500 -34.5248 -34.5248 -34.5189 -34.5189 -34.5103 -34.5103
   -15.3539 -15.3538 -15.3479 -15.3478 -15.3413 -15.3412 -15.2354 -15.2353
   -11.2483 -11.2480 -11.2453 -11.2451 -11.2424 -11.2421 -11.0304 -11.0302
   -10.9844 -10.9840 -10.9810 -10.9806 -10.9777 -10.9773 -10.8095 -10.8095
     2.8868   2.8873   4.5352   4.5365   4.5431   4.5431   4.5495   4.5508
     5.4672   5.4679   5.4730   5.4731   5.4786   5.4793   6.2470   6.2476
     9.0666   9.0669   9.0720   9.0721   9.0771   9.0774  10.9430  10.9430
    11.1419  11.1425  12.0201  12.0206  12.0215  12.0222

          k = 0.2500-0.2500-0.2500 (  6007 PWs)   bands (ev):

   -34.5500 -34.5500 -34.5248 -34.5248 -34.5189 -34.5189 -34.5103 -34.5103
   -15.3538 -15.3538 -15.3478 -15.3478 -15.3413 -15.3412 -15.2355 -15.2354
   -11.2478 -11.2476 -11.2455 -11.2451 -11.2422 -11.2421 -11.0305 -11.0304
   -10.9841 -10.9840 -10.9811 -10.9808 -10.9779 -10.9777 -10.8096 -10.8096
     2.8903   2.8905   4.5402   4.5406   4.5431   4.5432   4.5491   4.5498
     5.4649   5.4658   5.4730   5.4730   5.4746   5.4750   6.2422   6.2426
     9.0661   9.0663   9.0723   9.0723   9.0735   9.0736  10.9445  10.9445
    11.1435  11.1439  12.0194  12.0196  12.0206  12.0208

          k =-0.2500 0.2500 0.5000 (  6004 PWs)   bands (ev):

   -34.5400 -34.5400 -34.5301 -34.5301 -34.5223 -34.5223 -34.5116 -34.5116
   -15.3532 -15.3532 -15.3445 -15.3443 -15.2977 -15.2977 -15.2886 -15.2884
   -11.2562 -11.2561 -11.2526 -11.2523 -11.1626 -11.1625 -11.1588 -11.1584
   -10.9749 -10.9747 -10.9709 -10.9704 -10.8755 -10.8752 -10.8708 -10.8706
     3.6714   3.6716   3.6818   3.6824   4.3879   4.3886   4.3946   4.3955
     5.6993   5.7001   5.7039   5.7044   5.7331   5.7337   5.7450   5.7458
     9.4197   9.4199   9.4220   9.4222  10.3608  10.3612  10.3678  10.3682
    11.2562  11.2569  11.2582  11.2590  11.5340  11.5351

          k =-0.5000-0.2500 0.2500 (  6004 PWs)   bands (ev):

   -34.5383 -34.5383 -34.5338 -34.5338 -34.5189 -34.5189 -34.5129 -34.5129
   -15.3497 -15.3496 -15.3488 -15.3487 -15.2938 -15.2937 -15.2917 -15.2917
   -11.2550 -11.2547 -11.2543 -11.2540 -11.1607 -11.1605 -11.1603 -11.1603
   -10.9732 -10.9729 -10.9725 -10.9723 -10.8732 -10.8731 -10.8729 -10.8725
     3.6733   3.6738   3.6746   3.6746   4.3870   4.3877   4.3986   4.3994
     5.6974   5.6980   5.7049   5.7054   5.7409   5.7417   5.7427   5.7435
     9.4190   9.4191   9.4232   9.4234  10.3637  10.3642  10.3644  10.3648
    11.2559  11.2570  11.2575  11.2585  11.5350  11.5371

          k = 0.5000-0.2500-0.2500 (  6004 PWs)   bands (ev):

   -34.5383 -34.5383 -34.5338 -34.5338 -34.5189 -34.5189 -34.5129 -34.5129
   -15.3497 -15.3496 -15.3488 -15.3487 -15.2938 -15.2938 -15.2917 -15.2917
   -11.2548 -11.2546 -11.2544 -11.2542 -11.1609 -11.1607 -11.1602 -11.1601
   -10.9730 -10.9729 -10.9725 -10.9725 -10.8731 -10.8731 -10.8727 -10.8727
     3.6687   3.6689   3.6790   3.6793   4.3929   4.3930   4.3937   4.3938
     5.6992   5.7000   5.7015   5.7024   5.7377   5.7378   5.7476   5.7477
     9.4208   9.4210   9.4214   9.4215  10.3610  10.3611  10.3673  10.3674
    11.2556  11.2556  11.2593  11.2594  11.5365  11.5367

          k =-0.5000 0.2500 0.5000 (  6000 PWs)   bands (ev):

   -34.5358 -34.5358 -34.5263 -34.5263 -34.5263 -34.5263 -34.5153 -34.5153
   -15.3319 -15.3319 -15.3235 -15.3235 -15.3234 -15.3234 -15.3139 -15.3138
   -11.2377 -11.2377 -11.2373 -11.2371 -11.2314 -11.2311 -11.2307 -11.2307
   -10.8965 -10.8962 -10.8961 -10.8961 -10.8888 -10.8887 -10.8887 -10.8884
     3.8847   3.8853   3.8946   3.8946   3.8949   3.8950   3.9035   3.9041
     5.8769   5.8775   5.8851   5.8853   5.8856   5.8857   5.8942   5.8948
    10.1822  10.1826  10.1846  10.1847  10.1869  10.1870  10.1888  10.1892
    11.1085  11.1086  11.1093  11.1099  11.1102  11.1112

     the Fermi energy is     9.4739 ev

!    total energy              =   -2248.42540178 Ry
     Harris-Foulkes estimate   =   -2248.42540188 Ry
     estimated scf accuracy    <       0.00000011 Ry

     total all-electron energy =    -90252.768779 Ry

     The total energy is the sum of the following terms:

     one-electron contribution =     -47.14833752 Ry
     hartree contribution      =      44.08848823 Ry
     xc contribution           =    -257.25312268 Ry
     ewald contribution        =    -240.05121294 Ry
     one-center paw contrib.   =   -1748.05939298 Ry
     smearing contrib. (-TS)   =      -0.00182389 Ry

     convergence has been achieved in   2 iterations

     Forces acting on atoms (cartesian axes, Ry/au):

     atom    1 type  1   force =    -0.00001144    0.00058885    0.00058885
     atom    2 type  1   force =     0.00019171    0.00050221    0.00050221
     atom    3 type  1   force =    -0.00003387    0.00045431    0.00041925
     atom    4 type  1   force =    -0.00003387    0.00041925    0.00045431
     atom    5 type  2   force =     0.00011416   -0.00257114   -0.00257114
     atom    6 type  2   force =    -0.00000263   -0.00000962    0.00028330
     atom    7 type  2   force =     0.00000176    0.00006150    0.00006150
     atom    8 type  2   force =    -0.00000263    0.00028330   -0.00000962
     atom    9 type  2   force =    -0.00005610    0.00006138   -0.00006001
     atom   10 type  2   force =    -0.00006172    0.00028017    0.00028017
     atom   11 type  2   force =    -0.00005610   -0.00006001    0.00006138
     atom   12 type  2   force =    -0.00004927   -0.00001018   -0.00001018

     Total force =     0.003948     Total SCF correction =     0.001101
     SCF correction compared to forces is large: reduce conv_thr to get better values


     Computing stress (Cartesian axis) and pressure

     Message from routine stres:
     noncollinear stress + GGA not implemented

     number of scf cycles    =   2
     number of bfgs steps    =   1

     enthalpy old            =   -2248.4253826411 Ry
     enthalpy new            =   -2248.4254017823 Ry

     CASE: enthalpy_new < enthalpy_old


     WARNING: bfgs curvature condition failed, Theta= 0.911
     new trust radius        =       0.0044346818 bohr
     new conv_thr            =       0.0000000100 Ry

     new unit-cell volume =   1006.37882 a.u.^3 (   149.12995 Ang^3 )
     density =      7.09360 g/cm^3

CELL_PARAMETERS (angstrom)
   5.303000000   0.000000000   0.000000000
   0.000000000   5.303000000   0.000000000
   0.000000000   0.000000000   5.303000000

ATOMIC_POSITIONS (crystal)
Gd      -0.000026132   0.000158236   0.000158236
Gd       0.000061878   0.500128528   0.500128528
Gd       0.499994556   0.000104198   0.500094763
Gd       0.499994556   0.500094763   0.000104198
H        0.250030778   0.753303017   0.753303017
H        0.250000060   0.750090227   0.250066612
H        0.250000876   0.250011307   0.250011307
H        0.250000060   0.250066612   0.750090227
H        0.750085900   0.250011399   0.750079050
H        0.750084646   0.250062624   0.250062624
H        0.750085900   0.750079050   0.250011399
H        0.750086921   0.750090040   0.750090040



     Writing output data file 2300.save
     NEW-OLD atomic charge density approx. for the potential

     Check: negative/imaginary core charge=   -0.000002    0.000000

     total cpu time spent up to now is       51.3 secs

     per-process dynamical memory:   121.6 Mb

     Self-consistent Calculation

     iteration #  1     ecut=    50.00 Ry     beta=0.70
     Davidson diagonalization with overlap
     ethr =  1.00E-06,  avg # of iterations =  2.0

     Threshold (ethr) on eigenvalues was too large:
     Diagonalizing with lowered threshold

     Davidson diagonalization with overlap
     ethr =  3.26E-09,  avg # of iterations =  2.6

     total cpu time spent up to now is       59.4 secs

     total energy              =   -2248.42541938 Ry
     Harris-Foulkes estimate   =   -2248.42542320 Ry
     estimated scf accuracy    <       0.00000182 Ry

     iteration #  2     ecut=    50.00 Ry     beta=0.70
     Davidson diagonalization with overlap
     ethr =  3.49E-09,  avg # of iterations =  2.9

     total cpu time spent up to now is       63.8 secs

     total energy              =   -2248.42541947 Ry
     Harris-Foulkes estimate   =   -2248.42542037 Ry
     estimated scf accuracy    <       0.00000175 Ry

     iteration #  3     ecut=    50.00 Ry     beta=0.70
     Davidson diagonalization with overlap
     ethr =  3.37E-09,  avg # of iterations =  2.9

     total cpu time spent up to now is       68.0 secs

     total energy              =   -2248.42541989 Ry
     Harris-Foulkes estimate   =   -2248.42541997 Ry
     estimated scf accuracy    <       0.00000015 Ry

     iteration #  4     ecut=    50.00 Ry     beta=0.70
     Davidson diagonalization with overlap
     ethr =  2.85E-10,  avg # of iterations =  2.8

     total cpu time spent up to now is       72.2 secs

     End of self-consistent calculation

          k = 0.0000 0.0000 0.0000 (  6031 PWs)   bands (ev):

   -34.5711 -34.5711 -34.5169 -34.5169 -34.5115 -34.5115 -34.5038 -34.5038
   -15.3797 -15.3797 -15.3747 -15.3747 -15.3686 -15.3686 -15.1471 -15.1471
   -11.3125 -11.3125 -11.3100 -11.3100 -11.3080 -11.3080 -10.9996 -10.9996
   -10.9967 -10.9967 -10.9943 -10.9943 -10.7659 -10.7659 -10.7656 -10.7656
     1.7454   1.7454   4.4817   4.4817   4.4818   4.4818   4.4820   4.4820
     6.0835   6.0835   6.0853   6.0853   6.0869   6.0869   7.6397   7.6397
     7.6403   7.6403   7.6408   7.6408   8.1552   8.1552  10.6308  10.6308
    10.6321  10.6321  10.7913  10.7913  13.2285  13.2286

          k = 0.0000 0.0000 0.2500 (  6023 PWs)   bands (ev):

   -34.5626 -34.5626 -34.5214 -34.5214 -34.5143 -34.5143 -34.5050 -34.5050
   -15.3775 -15.3775 -15.3697 -15.3697 -15.3414 -15.3413 -15.1810 -15.1810
   -11.2846 -11.2845 -11.2805 -11.2803 -11.2392 -11.2391 -11.0366 -11.0364
   -11.0319 -11.0318 -10.9638 -10.9637 -10.8555 -10.8554 -10.8003 -10.8002
     2.2000   2.2002   4.6939   4.6941   4.6943   4.6946   4.7773   4.7774
     4.9998   5.0000   5.8328   5.8335   5.8346   5.8355   7.0174   7.0176
     8.0645   8.0650   8.0651   8.0657   8.6531   8.6532  10.9097  10.9097
    11.0390  11.0403  12.3195  12.3208  12.3489  12.3491

          k = 0.0000 0.0000-0.5000 (  5942 PWs)   bands (ev):

   -34.5458 -34.5458 -34.5370 -34.5370 -34.5149 -34.5149 -34.5055 -34.5055
   -15.3763 -15.3763 -15.3685 -15.3685 -15.2662 -15.2662 -15.2579 -15.2579
   -11.2458 -11.2458 -11.2391 -11.2391 -11.0877 -11.0877 -11.0807 -11.0807
   -11.0598 -11.0598 -11.0524 -11.0524 -10.8867 -10.8867 -10.8787 -10.8787
     3.4111   3.4111   3.4217   3.4217   5.1320   5.1320   5.1329   5.1329
     5.3581   5.3581   5.3596   5.3596   5.6427   5.6427   5.6574   5.6574
     8.7081   8.7081   8.7085   8.7085  10.3953  10.3953  10.4054  10.4054
    11.5198  11.5198  11.5235  11.5236  11.7914  11.7917

          k = 0.0000 0.2500 0.2500 (  6016 PWs)   bands (ev):

   -34.5554 -34.5554 -34.5213 -34.5213 -34.5189 -34.5189 -34.5076 -34.5076
   -15.3700 -15.3700 -15.3468 -15.3468 -15.3449 -15.3449 -15.2103 -15.2103
   -11.2674 -11.2674 -11.2354 -11.2351 -11.2349 -11.2348 -11.0379 -11.0379
   -10.9901 -10.9901 -10.9900 -10.9900 -10.9467 -10.9467 -10.8110 -10.8110
     2.5913   2.5913   4.7485   4.7485   4.8881   4.8887   4.8945   4.8947
     5.0395   5.0400   5.0468   5.0471   5.6906   5.6907   6.5046   6.5047
     8.4521   8.4522   8.8282   8.8282   8.8286   8.8286  10.8970  10.8970
    11.1903  11.1903  12.3958  12.3961  12.5738  12.5744

          k = 0.0000 0.2500-0.5000 (  6018 PWs)   bands (ev):

   -34.5417 -34.5417 -34.5329 -34.5329 -34.5191 -34.5191 -34.5095 -34.5095
   -15.3617 -15.3616 -15.3538 -15.3537 -15.2836 -15.2835 -15.2754 -15.2753
   -11.2418 -11.2417 -11.2383 -11.2380 -11.1084 -11.1081 -11.1044 -11.1042
   -11.0323 -11.0321 -11.0283 -11.0281 -10.8931 -10.8929 -10.8885 -10.8884
     3.6367   3.6371   3.6459   3.6464   4.8764   4.8781   4.8785   4.8804
     5.3387   5.3394   5.3407   5.3416   5.5989   5.5992   5.6109   5.6113
     9.0539   9.0540   9.0544   9.0545  10.2338  10.2342  10.2397  10.2401
    11.8758  11.8761  11.8786  11.8794  11.8999  11.9011

          k = 0.0000-0.5000-0.5000 (  6024 PWs)   bands (ev):

   -34.5344 -34.5344 -34.5263 -34.5263 -34.5263 -34.5263 -34.5161 -34.5161
   -15.3276 -15.3276 -15.3204 -15.3204 -15.3204 -15.3204 -15.3115 -15.3115
   -11.1928 -11.1928 -11.1926 -11.1926 -11.1920 -11.1920 -11.1918 -11.1918
   -10.9427 -10.9427 -10.9425 -10.9425 -10.9416 -10.9416 -10.9416 -10.9416
     4.2098   4.2098   4.2175   4.2175   4.2180   4.2180   4.2255   4.2255
     5.4676   5.4676   5.4758   5.4758   5.4760   5.4760   5.4855   5.4855
     9.8021   9.8021   9.8040   9.8040   9.8040   9.8040   9.8056   9.8056
    11.8687  11.8692  11.8713  11.8714  11.8738  11.8745

          k = 0.2500 0.2500 0.2500 (  6007 PWs)   bands (ev):

   -34.5495 -34.5495 -34.5239 -34.5239 -34.5188 -34.5188 -34.5109 -34.5109
   -15.3529 -15.3529 -15.3478 -15.3478 -15.3417 -15.3417 -15.2352 -15.2352
   -11.2478 -11.2477 -11.2451 -11.2448 -11.2430 -11.2427 -11.0299 -11.0298
   -10.9835 -10.9835 -10.9806 -10.9805 -10.9778 -10.9778 -10.8092 -10.8092
     2.8838   2.8840   4.5369   4.5376   4.5431   4.5432   4.5452   4.5455
     5.4714   5.4718   5.4729   5.4730   5.4795   5.4804   6.2517   6.2519
     9.0707   9.0708   9.0719   9.0719   9.0773   9.0774  10.9418  10.9419
    11.1409  11.1412  12.0216  12.0219  12.0226  12.0228

          k = 0.2500 0.2500-0.5000 (  6004 PWs)   bands (ev):

   -34.5388 -34.5388 -34.5302 -34.5302 -34.5218 -34.5218 -34.5122 -34.5122
   -15.3526 -15.3525 -15.3447 -15.3447 -15.2971 -15.2970 -15.2888 -15.2888
   -11.2561 -11.2560 -11.2529 -11.2527 -11.1622 -11.1618 -11.1585 -11.1584
   -10.9745 -10.9742 -10.9706 -10.9706 -10.8749 -10.8747 -10.8708 -10.8706
     3.6665   3.6670   3.6762   3.6763   4.3913   4.3920   4.3974   4.3980
     5.6978   5.6983   5.7021   5.7025   5.7392   5.7397   5.7507   5.7511
     9.4203   9.4205   9.4223   9.4225  10.3610  10.3612  10.3669  10.3673
    11.2562  11.2567  11.2580  11.2585  11.5378  11.5391

          k = 0.2500-0.5000-0.5000 (  6000 PWs)   bands (ev):

   -34.5344 -34.5344 -34.5262 -34.5262 -34.5262 -34.5262 -34.5161 -34.5161
   -15.3306 -15.3306 -15.3234 -15.3234 -15.3234 -15.3234 -15.3145 -15.3145
   -11.2365 -11.2365 -11.2363 -11.2360 -11.2320 -11.2319 -11.2316 -11.2315
   -10.8952 -10.8950 -10.8949 -10.8949 -10.8896 -10.8896 -10.8895 -10.8894
     3.8862   3.8863   3.8945   3.8945   3.8948   3.8949   3.9025   3.9027
     5.8770   5.8775   5.8852   5.8852   5.8853   5.8855   5.8941   5.8944
    10.1832  10.1837  10.1857  10.1858  10.1859  10.1860  10.1879  10.1884
    11.1082  11.1083  11.1088  11.1101  11.1109  11.1109

          k =-0.5000-0.5000-0.5000 (  6008 PWs)   bands (ev):

   -34.5343 -34.5343 -34.5262 -34.5262 -34.5262 -34.5262 -34.5160 -34.5160
   -15.3336 -15.3336 -15.3264 -15.3264 -15.3264 -15.3264 -15.3175 -15.3175
   -11.2688 -11.2688 -11.2683 -11.2683 -11.2636 -11.2636 -11.2631 -11.2631
   -10.8556 -10.8556 -10.8553 -10.8553 -10.8491 -10.8491 -10.8489 -10.8489
     3.6601   3.6601   3.6686   3.6686   3.6689   3.6689   3.6768   3.6768
     6.1929   6.1929   6.2006   6.2006   6.2009   6.2009   6.2095   6.2095
    10.6577  10.6577  10.6586  10.6586  10.6589  10.6589  10.6599  10.6599
    10.8442  10.8442  10.8451  10.8451  10.8457  10.8457

          k = 0.2500 0.0000 0.0000 (  6023 PWs)   bands (ev):

   -34.5625 -34.5625 -34.5229 -34.5229 -34.5114 -34.5114 -34.5065 -34.5065
   -15.3740 -15.3740 -15.3737 -15.3737 -15.3408 -15.3408 -15.1810 -15.1810
   -11.2829 -11.2826 -11.2823 -11.2822 -11.2392 -11.2391 -11.0345 -11.0345
   -11.0341 -11.0338 -10.9636 -10.9636 -10.8555 -10.8553 -10.8003 -10.8003
     2.2000   2.2002   4.6937   4.6942   4.6944   4.6947   4.7775   4.7776
     4.9996   4.9998   5.8329   5.8338   5.8345   5.8352   7.0174   7.0176
     8.0646   8.0650   8.0651   8.0659   8.6530   8.6531  10.9096  10.9096
    11.0386  11.0405  12.3196  12.3214  12.3486  12.3486

          k =-0.5000 0.0000 0.0000 (  5942 PWs)   bands (ev):

   -34.5428 -34.5428 -34.5412 -34.5412 -34.5114 -34.5114 -34.5078 -34.5078
   -15.3727 -15.3727 -15.3724 -15.3724 -15.2626 -15.2626 -15.2611 -15.2611
   -11.2428 -11.2428 -11.2422 -11.2422 -11.0852 -11.0852 -11.0841 -11.0841
   -11.0570 -11.0570 -11.0544 -11.0544 -10.8832 -10.8832 -10.8822 -10.8822
     3.4159   3.4159   3.4170   3.4170   5.1319   5.1319   5.1331   5.1331
     5.3588   5.3588   5.3591   5.3591   5.6492   5.6492   5.6507   5.6507
     8.7081   8.7081   8.7086   8.7086  10.3998  10.3998  10.4007  10.4007
    11.5213  11.5213  11.5218  11.5218  11.7906  11.7910

          k = 0.0000 0.2500-0.2500 (  6016 PWs)   bands (ev):

   -34.5554 -34.5554 -34.5213 -34.5213 -34.5189 -34.5189 -34.5076 -34.5076
   -15.3700 -15.3699 -15.3468 -15.3468 -15.3449 -15.3449 -15.2104 -15.2102
   -11.2675 -11.2674 -11.2353 -11.2351 -11.2349 -11.2348 -11.0382 -11.0377
   -10.9902 -10.9901 -10.9900 -10.9898 -10.9468 -10.9466 -10.8110 -10.8109
     2.5911   2.5915   4.7480   4.7489   4.8870   4.8877   4.8950   4.8961
     5.0380   5.0397   5.0471   5.0488   5.6906   5.6908   6.5046   6.5048
     8.4520   8.4522   8.8230   8.8232   8.8333   8.8336  10.8970  10.8970
    11.1894  11.1908  12.3957  12.3960  12.5739  12.5744

          k = 0.2500 0.0000-0.2500 (  6016 PWs)   bands (ev):

   -34.5553 -34.5553 -34.5234 -34.5234 -34.5162 -34.5162 -34.5083 -34.5083
   -15.3695 -15.3694 -15.3501 -15.3500 -15.3422 -15.3420 -15.2104 -15.2103
   -11.2675 -11.2672 -11.2369 -11.2369 -11.2330 -11.2328 -11.0383 -11.0380
   -10.9922 -10.9921 -10.9880 -10.9875 -10.9470 -10.9469 -10.8111 -10.8110
     2.5924   2.5927   4.7505   4.7510   4.8879   4.8908   4.8925   4.8957
     5.0377   5.0407   5.0437   5.0467   5.6891   5.6904   6.5025   6.5029
     8.4512   8.4519   8.8239   8.8243   8.8298   8.8299  10.8986  10.8988
    11.1907  11.1915  12.3954  12.3955  12.5737  12.5743

          k =-0.2500 0.0000-0.2500 (  6016 PWs)   bands (ev):

   -34.5553 -34.5553 -34.5234 -34.5234 -34.5162 -34.5162 -34.5083 -34.5083
   -15.3695 -15.3694 -15.3502 -15.3500 -15.3422 -15.3421 -15.2103 -15.2103
   -11.2675 -11.2672 -11.2372 -11.2371 -11.2332 -11.2332 -11.0380 -11.0378
   -10.9923 -10.9919 -10.9878 -10.9877 -10.9469 -10.9468 -10.8109 -10.8109
     2.5899   2.5902   4.7457   4.7462   4.8876   4.8908   4.8922   4.8952
     5.0399   5.0429   5.0458   5.0489   5.6912   5.6924   6.5065   6.5069
     8.4524   8.4531   8.8269   8.8270   8.8323   8.8327  10.8949  10.8952
    11.1891  11.1898  12.3961  12.3962  12.5688  12.5716

          k = 0.2500 0.0000 0.5000 (  6018 PWs)   bands (ev):

   -34.5417 -34.5417 -34.5329 -34.5329 -34.5191 -34.5191 -34.5095 -34.5095
   -15.3617 -15.3616 -15.3538 -15.3537 -15.2836 -15.2835 -15.2754 -15.2753
   -11.2419 -11.2417 -11.2383 -11.2381 -11.1082 -11.1080 -11.1042 -11.1041
   -11.0325 -11.0323 -11.0285 -11.0283 -10.8930 -10.8929 -10.8885 -10.8884
     3.6363   3.6366   3.6464   3.6467   4.8748   4.8756   4.8809   4.8818
     5.3380   5.3390   5.3413   5.3427   5.5986   5.5990   5.6111   5.6116
     9.0531   9.0534   9.0550   9.0553  10.2327  10.2330  10.2409  10.2411
    11.8746  11.8750  11.8811  11.8815  11.9016  11.9023

          k =-0.5000-0.2500 0.0000 (  6018 PWs)   bands (ev):

   -34.5392 -34.5392 -34.5368 -34.5368 -34.5158 -34.5158 -34.5113 -34.5113
   -15.3580 -15.3579 -15.3579 -15.3578 -15.2801 -15.2801 -15.2784 -15.2784
   -11.2404 -11.2401 -11.2398 -11.2397 -11.1065 -11.1063 -11.1061 -11.1060
   -11.0307 -11.0306 -11.0300 -11.0297 -10.8910 -10.8910 -10.8905 -10.8903
     3.6392   3.6396   3.6435   3.6438   4.8746   4.8756   4.8809   4.8819
     5.3376   5.3389   5.3417   5.3428   5.6029   5.6034   5.6068   5.6072
     9.0531   9.0535   9.0549   9.0553  10.2340  10.2342  10.2396  10.2398
    11.8751  11.8755  11.8797  11.8813  11.8997  11.9008

          k =-0.5000 0.0000 0.5000 (  6024 PWs)   bands (ev):

   -34.5344 -34.5344 -34.5263 -34.5263 -34.5263 -34.5263 -34.5161 -34.5161
   -15.3276 -15.3276 -15.3204 -15.3204 -15.3203 -15.3203 -15.3115 -15.3115
   -11.1959 -11.1959 -11.1955 -11.1955 -11.1891 -11.1891 -11.1886 -11.1886
   -10.9461 -10.9461 -10.9458 -10.9458 -10.9384 -10.9384 -10.9382 -10.9382
     4.2085   4.2085   4.2178   4.2178   4.2179   4.2179   4.2264   4.2264
     5.4685   5.4685   5.4758   5.4758   5.4766   5.4766   5.4844   5.4844
     9.8009   9.8009   9.8028   9.8028   9.8052   9.8052   9.8067   9.8067
    11.8686  11.8686  11.8713  11.8713  11.8718  11.8718

          k =-0.2500 0.2500-0.2500 (  6007 PWs)   bands (ev):

   -34.5494 -34.5494 -34.5239 -34.5239 -34.5188 -34.5188 -34.5109 -34.5109
   -15.3529 -15.3528 -15.3478 -15.3477 -15.3417 -15.3416 -15.2353 -15.2352
   -11.2478 -11.2476 -11.2451 -11.2449 -11.2426 -11.2423 -11.0301 -11.0299
   -10.9838 -10.9836 -10.9808 -10.9805 -10.9779 -10.9776 -10.8093 -10.8093
     2.8868   2.8872   4.5360   4.5371   4.5430   4.5431   4.5488   4.5499
     5.4677   5.4683   5.4729   5.4731   5.4780   5.4786   6.2470   6.2475
     9.0671   9.0674   9.0721   9.0721   9.0766   9.0769  10.9431  10.9431
    11.1420  11.1425  12.0203  12.0207  12.0215  12.0222

          k = 0.2500-0.2500-0.2500 (  6007 PWs)   bands (ev):

   -34.5494 -34.5494 -34.5239 -34.5239 -34.5188 -34.5188 -34.5109 -34.5109
   -15.3528 -15.3528 -15.3478 -15.3477 -15.3417 -15.3416 -15.2353 -15.2353
   -11.2473 -11.2472 -11.2453 -11.2449 -11.2423 -11.2423 -11.0302 -11.0301
   -10.9836 -10.9836 -10.9809 -10.9807 -10.9781 -10.9779 -10.8094 -10.8094
     2.8899   2.8901   4.5404   4.5407   4.5430   4.5431   4.5484   4.5490
     5.4656   5.4664   5.4730   5.4730   5.4744   5.4747   6.2427   6.2430
     9.0666   9.0669   9.0724   9.0724   9.0734   9.0735  10.9444  10.9444
    11.1435  11.1438  12.0197  12.0199  12.0207  12.0208

          k =-0.2500 0.2500 0.5000 (  6004 PWs)   bands (ev):

   -34.5388 -34.5388 -34.5302 -34.5302 -34.5219 -34.5219 -34.5122 -34.5122
   -15.3525 -15.3525 -15.3447 -15.3446 -15.2971 -15.2971 -15.2890 -15.2888
   -11.2558 -11.2557 -11.2526 -11.2524 -11.1622 -11.1621 -11.1588 -11.1584
   -10.9744 -10.9743 -10.9709 -10.9705 -10.8751 -10.8748 -10.8709 -10.8707
     3.6716   3.6718   3.6809   3.6814   4.3884   4.3890   4.3944   4.3952
     5.6996   5.7002   5.7036   5.7040   5.7339   5.7344   5.7446   5.7453
     9.4199   9.4201   9.4220   9.4221  10.3612  10.3615  10.3675  10.3678
    11.2564  11.2570  11.2582  11.2588  11.5343  11.5354

          k =-0.5000-0.2500 0.2500 (  6004 PWs)   bands (ev):

   -34.5371 -34.5371 -34.5337 -34.5337 -34.5188 -34.5188 -34.5135 -34.5135
   -15.3491 -15.3490 -15.3487 -15.3486 -15.2937 -15.2937 -15.2917 -15.2917
   -11.2547 -11.2545 -11.2541 -11.2539 -11.1606 -11.1603 -11.1602 -11.1601
   -10.9730 -10.9728 -10.9723 -10.9722 -10.8731 -10.8730 -10.8726 -10.8723
     3.6734   3.6738   3.6744   3.6745   4.3877   4.3882   4.3980   4.3986
     5.6978   5.6983   5.7045   5.7049   5.7410   5.7416   5.7425   5.7431
     9.4192   9.4194   9.4230   9.4232  10.3638  10.3642  10.3645  10.3648
    11.2562  11.2572  11.2575  11.2583  11.5352  11.5371

          k = 0.5000-0.2500-0.2500 (  6004 PWs)   bands (ev):

   -34.5371 -34.5371 -34.5337 -34.5337 -34.5188 -34.5188 -34.5135 -34.5135
   -15.3491 -15.3490 -15.3487 -15.3487 -15.2937 -15.2937 -15.2917 -15.2917
   -11.2546 -11.2545 -11.2541 -11.2540 -11.1607 -11.1605 -11.1600 -11.1599
   -10.9728 -10.9728 -10.9723 -10.9723 -10.8730 -10.8730 -10.8725 -10.8725
     3.6693   3.6694   3.6784   3.6786   4.3929   4.3930   4.3936   4.3937
     5.6995   5.7002   5.7015   5.7023   5.7380   5.7382   5.7469   5.7470
     9.4209   9.4211   9.4214   9.4215  10.3614  10.3615  10.3670  10.3671
    11.2558  11.2558  11.2592  11.2592  11.5366  11.5367

          k =-0.5000 0.2500 0.5000 (  6000 PWs)   bands (ev):

   -34.5344 -34.5344 -34.5262 -34.5262 -34.5262 -34.5262 -34.5161 -34.5161
   -15.3306 -15.3306 -15.3234 -15.3234 -15.3234 -15.3234 -15.3145 -15.3145
   -11.2371 -11.2371 -11.2368 -11.2366 -11.2316 -11.2313 -11.2309 -11.2309
   -10.8959 -10.8957 -10.8955 -10.8955 -10.8890 -10.8890 -10.8889 -10.8887
     3.8857   3.8863   3.8945   3.8946   3.8948   3.8948   3.9025   3.9031
     5.8777   5.8782   5.8850   5.8853   5.8855   5.8857   5.8932   5.8938
    10.1827  10.1830  10.1847  10.1848  10.1869  10.1870  10.1885  10.1888
    11.1087  11.1088  11.1095  11.1099  11.1102  11.1112

     the Fermi energy is     9.4739 ev

!    total energy              =   -2248.42541992 Ry
     Harris-Foulkes estimate   =   -2248.42541993 Ry
     estimated scf accuracy    <          3.6E-09 Ry

     total all-electron energy =    -90252.768797 Ry

     The total energy is the sum of the following terms:

     one-electron contribution =     -47.14796684 Ry
     hartree contribution      =      44.08810622 Ry
     xc contribution           =    -257.25304052 Ry
     ewald contribution        =    -240.05132651 Ry
     one-center paw contrib.   =   -1748.05936836 Ry
     smearing contrib. (-TS)   =      -0.00182392 Ry

     convergence has been achieved in   4 iterations

     Forces acting on atoms (cartesian axes, Ry/au):

     atom    1 type  1   force =    -0.00033811    0.00051721    0.00051721
     atom    2 type  1   force =     0.00023063    0.00054581    0.00054581
     atom    3 type  1   force =     0.00008949    0.00021922    0.00029112
     atom    4 type  1   force =     0.00008949    0.00029112    0.00021922
     atom    5 type  2   force =     0.00008894   -0.00231234   -0.00231234
     atom    6 type  2   force =     0.00000997    0.00002338    0.00027563
     atom    7 type  2   force =     0.00001333    0.00008381    0.00008381
     atom    8 type  2   force =     0.00000997    0.00027563    0.00002338
     atom    9 type  2   force =    -0.00004904    0.00008405   -0.00000692
     atom   10 type  2   force =    -0.00005210    0.00025567    0.00025567
     atom   11 type  2   force =    -0.00004904   -0.00000692    0.00008405
     atom   12 type  2   force =    -0.00004354    0.00002336    0.00002336

     Total force =     0.003550     Total SCF correction =     0.000207


     Computing stress (Cartesian axis) and pressure

     Message from routine stres:
     noncollinear stress + GGA not implemented

     number of scf cycles    =   3
     number of bfgs steps    =   2

     enthalpy old            =   -2248.4254017823 Ry
     enthalpy new            =   -2248.4254199239 Ry

     CASE: enthalpy_new < enthalpy_old

     new trust radius        =       0.0066520227 bohr
     new conv_thr            =       0.0000000100 Ry

     new unit-cell volume =   1006.37882 a.u.^3 (   149.12995 Ang^3 )
     density =      7.09360 g/cm^3

CELL_PARAMETERS (angstrom)
   5.303000000   0.000000000   0.000000000
   0.000000000   5.303000000   0.000000000
   0.000000000   0.000000000   5.303000000

ATOMIC_POSITIONS (crystal)
Gd      -0.000080865   0.000268073   0.000268073
Gd       0.000108785   0.500236299   0.500236299
Gd       0.500006434   0.000159084   0.500158163
Gd       0.500006434   0.500158163   0.000159084
H        0.250050431   0.752833849   0.752833849
H        0.250001521   0.750091697   0.250121525
H        0.250003010   0.250026126   0.250026126
H        0.250001521   0.250121525   0.750091697
H        0.750075661   0.250026271   0.750073628
H        0.750073684   0.250113817   0.250113817
H        0.750075661   0.750073628   0.250026271
H        0.750077724   0.750091467   0.750091467



     Writing output data file 2300.save
     NEW-OLD atomic charge density approx. for the potential

     Check: negative/imaginary core charge=   -0.000002    0.000000

     total cpu time spent up to now is       75.4 secs

     per-process dynamical memory:   121.6 Mb

     Self-consistent Calculation

     iteration #  1     ecut=    50.00 Ry     beta=0.70
     Davidson diagonalization with overlap
     ethr =  1.00E-06,  avg # of iterations =  2.0

     Threshold (ethr) on eigenvalues was too large:
     Diagonalizing with lowered threshold

     Davidson diagonalization with overlap
     ethr =  5.71E-09,  avg # of iterations =  2.6

     total cpu time spent up to now is       83.5 secs

     total energy              =   -2248.42544217 Ry
     Harris-Foulkes estimate   =   -2248.42544977 Ry
     estimated scf accuracy    <       0.00000307 Ry

     iteration #  2     ecut=    50.00 Ry     beta=0.70
     Davidson diagonalization with overlap
     ethr =  5.90E-09,  avg # of iterations =  2.9

     total cpu time spent up to now is       87.8 secs

     total energy              =   -2248.42544221 Ry
     Harris-Foulkes estimate   =   -2248.42544358 Ry
     estimated scf accuracy    <       0.00000255 Ry

     iteration #  3     ecut=    50.00 Ry     beta=0.70
     Davidson diagonalization with overlap
     ethr =  4.90E-09,  avg # of iterations =  2.9

     total cpu time spent up to now is       92.0 secs

     total energy              =   -2248.42544285 Ry
     Harris-Foulkes estimate   =   -2248.42544301 Ry
     estimated scf accuracy    <       0.00000032 Ry

     iteration #  4     ecut=    50.00 Ry     beta=0.70
     Davidson diagonalization with overlap
     ethr =  6.09E-10,  avg # of iterations =  2.8

     total cpu time spent up to now is       96.2 secs

     End of self-consistent calculation

          k = 0.0000 0.0000 0.0000 (  6031 PWs)   bands (ev):

   -34.5709 -34.5709 -34.5159 -34.5159 -34.5114 -34.5114 -34.5052 -34.5052
   -15.3788 -15.3788 -15.3746 -15.3746 -15.3696 -15.3696 -15.1471 -15.1471
   -11.3120 -11.3120 -11.3100 -11.3100 -11.3083 -11.3083 -10.9991 -10.9991
   -10.9968 -10.9968 -10.9948 -10.9948 -10.7659 -10.7659 -10.7657 -10.7657
     1.7454   1.7454   4.4817   4.4817   4.4818   4.4818   4.4819   4.4819
     6.0838   6.0838   6.0853   6.0853   6.0866   6.0866   7.6398   7.6398
     7.6404   7.6404   7.6407   7.6407   8.1550   8.1550  10.6309  10.6309
    10.6320  10.6320  10.7913  10.7913  13.2285  13.2286

          k = 0.0000 0.0000 0.2500 (  6023 PWs)   bands (ev):

   -34.5623 -34.5623 -34.5209 -34.5209 -34.5139 -34.5139 -34.5062 -34.5062
   -15.3767 -15.3767 -15.3703 -15.3703 -15.3415 -15.3415 -15.1811 -15.1810
   -11.2842 -11.2841 -11.2808 -11.2807 -11.2392 -11.2391 -11.0361 -11.0360
   -11.0323 -11.0322 -10.9637 -10.9637 -10.8555 -10.8554 -10.8003 -10.8003
     2.2001   2.2002   4.6940   4.6942   4.6943   4.6945   4.7774   4.7774
     4.9998   4.9999   5.8331   5.8336   5.8345   5.8352   7.0174   7.0176
     8.0646   8.0650   8.0651   8.0655   8.6531   8.6531  10.9097  10.9097
    11.0392  11.0401  12.3199  12.3207  12.3488  12.3489

          k = 0.0000 0.0000-0.5000 (  5942 PWs)   bands (ev):

   -34.5448 -34.5448 -34.5375 -34.5375 -34.5143 -34.5143 -34.5066 -34.5066
   -15.3756 -15.3756 -15.3691 -15.3691 -15.2655 -15.2655 -15.2587 -15.2587
   -11.2451 -11.2451 -11.2397 -11.2397 -11.0869 -11.0869 -11.0812 -11.0812
   -11.0593 -11.0593 -11.0533 -11.0533 -10.8860 -10.8860 -10.8794 -10.8794
     3.4120   3.4120   3.4208   3.4208   5.1322   5.1322   5.1328   5.1328
     5.3583   5.3583   5.3595   5.3595   5.6439   5.6439   5.6560   5.6560
     8.7082   8.7082   8.7084   8.7084  10.3962  10.3962  10.4045  10.4045
    11.5201  11.5201  11.5232  11.5232  11.7913  11.7916

          k = 0.0000 0.2500 0.2500 (  6016 PWs)   bands (ev):

   -34.5550 -34.5550 -34.5206 -34.5206 -34.5188 -34.5188 -34.5088 -34.5088
   -15.3696 -15.3695 -15.3467 -15.3467 -15.3453 -15.3453 -15.2104 -15.2104
   -11.2674 -11.2673 -11.2353 -11.2351 -11.2349 -11.2348 -11.0379 -11.0379
   -10.9900 -10.9900 -10.9900 -10.9899 -10.9469 -10.9469 -10.8110 -10.8110
     2.5913   2.5913   4.7484   4.7485   4.8887   4.8890   4.8941   4.8943
     5.0401   5.0404   5.0463   5.0465   5.6906   5.6907   6.5047   6.5047
     8.4521   8.4522   8.8282   8.8283   8.8285   8.8285  10.8969  10.8970
    11.1903  11.1903  12.3958  12.3960  12.5739  12.5743

          k = 0.0000 0.2500-0.5000 (  6018 PWs)   bands (ev):

   -34.5406 -34.5406 -34.5334 -34.5334 -34.5185 -34.5185 -34.5107 -34.5107
   -15.3609 -15.3608 -15.3545 -15.3544 -15.2830 -15.2829 -15.2762 -15.2761
   -11.2414 -11.2414 -11.2385 -11.2384 -11.1079 -11.1078 -11.1047 -11.1045
   -11.0319 -11.0318 -11.0287 -11.0285 -10.8926 -10.8926 -10.8889 -10.8889
     3.6376   3.6379   3.6452   3.6455   4.8767   4.8781   4.8785   4.8800
     5.3389   5.3395   5.3407   5.3414   5.6000   5.6002   5.6098   5.6101
     9.0540   9.0541   9.0543   9.0544  10.2344  10.2347  10.2393  10.2395
    11.8760  11.8763  11.8784  11.8793  11.9005  11.9014

          k = 0.0000-0.5000-0.5000 (  6024 PWs)   bands (ev):

   -34.5329 -34.5329 -34.5262 -34.5262 -34.5262 -34.5262 -34.5179 -34.5179
   -15.3262 -15.3262 -15.3203 -15.3203 -15.3203 -15.3203 -15.3130 -15.3130
   -11.1926 -11.1926 -11.1925 -11.1925 -11.1921 -11.1921 -11.1920 -11.1920
   -10.9426 -10.9426 -10.9424 -10.9424 -10.9418 -10.9418 -10.9417 -10.9417
     4.2111   4.2111   4.2175   4.2175   4.2180   4.2180   4.2242   4.2242
     5.4686   5.4686   5.4759   5.4759   5.4760   5.4760   5.4844   5.4844
     9.8027   9.8027   9.8040   9.8040   9.8040   9.8040   9.8051   9.8051
    11.8691  11.8695  11.8714  11.8715  11.8735  11.8741

          k = 0.2500 0.2500 0.2500 (  6007 PWs)   bands (ev):

   -34.5490 -34.5490 -34.5230 -34.5230 -34.5187 -34.5187 -34.5123 -34.5123
   -15.3519 -15.3519 -15.3477 -15.3477 -15.3427 -15.3427 -15.2353 -15.2353
   -11.2473 -11.2473 -11.2450 -11.2449 -11.2433 -11.2431 -11.0298 -11.0298
   -10.9830 -10.9830 -10.9806 -10.9806 -10.9784 -10.9783 -10.8092 -10.8092
     2.8844   2.8845   4.5379   4.5384   4.5432   4.5432   4.5449   4.5450
     5.4717   5.4719   5.4729   5.4729   5.4785   5.4792   6.2509   6.2510
     9.0709   9.0710   9.0718   9.0719   9.0764   9.0766  10.9421  10.9421
    11.1412  11.1414  12.0216  12.0218  12.0223  12.0225

          k = 0.2500 0.2500-0.5000 (  6004 PWs)   bands (ev):

   -34.5377 -34.5377 -34.5305 -34.5305 -34.5213 -34.5213 -34.5135 -34.5135
   -15.3518 -15.3517 -15.3453 -15.3453 -15.2965 -15.2963 -15.2897 -15.2896
   -11.2557 -11.2557 -11.2530 -11.2529 -11.1619 -11.1616 -11.1588 -11.1587
   -10.9741 -10.9739 -10.9710 -10.9709 -10.8745 -10.8744 -10.8711 -10.8710
     3.6678   3.6682   3.6758   3.6759   4.3917   4.3922   4.3966   4.3971
     5.6984   5.6989   5.7020   5.7022   5.7397   5.7400   5.7491   5.7494
     9.4205   9.4206   9.4221   9.4223  10.3615  10.3617  10.3665  10.3668
    11.2565  11.2568  11.2580  11.2583  11.5376  11.5387

          k = 0.2500-0.5000-0.5000 (  6000 PWs)   bands (ev):

   -34.5329 -34.5329 -34.5261 -34.5261 -34.5261 -34.5261 -34.5178 -34.5178
   -15.3292 -15.3292 -15.3233 -15.3233 -15.3233 -15.3233 -15.3160 -15.3160
   -11.2361 -11.2361 -11.2358 -11.2356 -11.2324 -11.2323 -11.2320 -11.2319
   -10.8946 -10.8945 -10.8944 -10.8944 -10.8901 -10.8901 -10.8900 -10.8899
     3.8877   3.8878   3.8945   3.8945   3.8948   3.8948   3.9011   3.9012
     5.8784   5.8787   5.8852   5.8853   5.8853   5.8855   5.8927   5.8930
    10.1839  10.1842  10.1857  10.1858  10.1860  10.1860  10.1874  10.1877
    11.1084  11.1086  11.1090  11.1102  11.1107  11.1108

          k =-0.5000-0.5000-0.5000 (  6008 PWs)   bands (ev):

   -34.5328 -34.5328 -34.5261 -34.5261 -34.5261 -34.5261 -34.5178 -34.5178
   -15.3322 -15.3322 -15.3263 -15.3263 -15.3263 -15.3263 -15.3191 -15.3191
   -11.2683 -11.2683 -11.2679 -11.2679 -11.2640 -11.2640 -11.2635 -11.2635
   -10.8550 -10.8550 -10.8548 -10.8548 -10.8497 -10.8497 -10.8495 -10.8495
     3.6616   3.6616   3.6686   3.6686   3.6688   3.6688   3.6753   3.6753
     6.1943   6.1943   6.2007   6.2007   6.2009   6.2009   6.2080   6.2080
    10.6579  10.6579  10.6586  10.6586  10.6589  10.6589  10.6597  10.6597
    10.8444  10.8444  10.8451  10.8451  10.8456  10.8456

          k = 0.2500 0.0000 0.0000 (  6023 PWs)   bands (ev):

   -34.5623 -34.5623 -34.5221 -34.5221 -34.5113 -34.5113 -34.5076 -34.5076
   -15.3738 -15.3738 -15.3736 -15.3736 -15.3411 -15.3411 -15.1811 -15.1810
   -11.2827 -11.2826 -11.2823 -11.2822 -11.2392 -11.2391 -11.0345 -11.0344
   -11.0341 -11.0340 -10.9636 -10.9636 -10.8555 -10.8554 -10.8003 -10.8003
     2.2001   2.2002   4.6939   4.6942   4.6943   4.6946   4.7775   4.7775
     4.9996   4.9998   5.8331   5.8339   5.8343   5.8350   7.0174   7.0176
     8.0647   8.0650   8.0650   8.0656   8.6530   8.6531  10.9096  10.9097
    11.0390  11.0402  12.3200  12.3211  12.3486  12.3486

          k =-0.5000 0.0000 0.0000 (  5942 PWs)   bands (ev):

   -34.5421 -34.5421 -34.5411 -34.5411 -34.5113 -34.5113 -34.5087 -34.5087
   -15.3726 -15.3726 -15.3723 -15.3723 -15.2625 -15.2625 -15.2614 -15.2614
   -11.2427 -11.2427 -11.2422 -11.2422 -11.0847 -11.0847 -11.0840 -11.0840
   -11.0569 -11.0569 -11.0551 -11.0551 -10.8831 -10.8831 -10.8823 -10.8823
     3.4160   3.4160   3.4168   3.4168   5.1321   5.1321   5.1329   5.1329
     5.3588   5.3588   5.3590   5.3590   5.6494   5.6494   5.6505   5.6505
     8.7081   8.7081   8.7085   8.7085  10.4000  10.4000  10.4006  10.4006
    11.5214  11.5214  11.5217  11.5217  11.7907  11.7910

          k = 0.0000 0.2500-0.2500 (  6016 PWs)   bands (ev):

   -34.5550 -34.5550 -34.5206 -34.5206 -34.5188 -34.5188 -34.5088 -34.5088
   -15.3696 -15.3695 -15.3467 -15.3467 -15.3453 -15.3453 -15.2104 -15.2103
   -11.2674 -11.2673 -11.2352 -11.2351 -11.2349 -11.2348 -11.0381 -11.0378
   -10.9901 -10.9900 -10.9899 -10.9899 -10.9469 -10.9468 -10.8110 -10.8110
     2.5912   2.5914   4.7482   4.7487   4.8875   4.8882   4.8947   4.8956
     5.0386   5.0401   5.0466   5.0480   5.6906   5.6908   6.5046   6.5047
     8.4521   8.4522   8.8238   8.8240   8.8326   8.8328  10.8970  10.8970
    11.1898  11.1906  12.3958  12.3960  12.5739  12.5744

          k = 0.2500 0.0000-0.2500 (  6016 PWs)   bands (ev):

   -34.5550 -34.5550 -34.5225 -34.5225 -34.5163 -34.5163 -34.5095 -34.5095
   -15.3692 -15.3692 -15.3494 -15.3494 -15.3429 -15.3428 -15.2104 -15.2104
   -11.2674 -11.2672 -11.2366 -11.2365 -11.2334 -11.2332 -11.0382 -11.0380
   -10.9918 -10.9917 -10.9883 -10.9879 -10.9471 -10.9470 -10.8111 -10.8110
     2.5923   2.5924   4.7501   4.7505   4.8883   4.8909   4.8924   4.8951
     5.0385   5.0411   5.0436   5.0462   5.6895   5.6903   6.5029   6.5031
     8.4514   8.4519   8.8246   8.8249   8.8296   8.8297  10.8983  10.8985
    11.1907  11.1912  12.3955  12.3955  12.5738  12.5743

          k =-0.2500 0.0000-0.2500 (  6016 PWs)   bands (ev):

   -34.5550 -34.5550 -34.5225 -34.5225 -34.5163 -34.5163 -34.5095 -34.5095
   -15.3692 -15.3691 -15.3495 -15.3494 -15.3429 -15.3429 -15.2104 -15.2103
   -11.2674 -11.2672 -11.2368 -11.2367 -11.2335 -11.2335 -11.0379 -11.0378
[...]

   -34.5704 -34.5704 -34.5120 -34.5120 -34.5111 -34.5111 -34.5099 -34.5099
   -15.3752 -15.3752 -15.3744 -15.3744 -15.3734 -15.3734 -15.1473 -15.1473
   -11.3105 -11.3105 -11.3101 -11.3101 -11.3098 -11.3098 -10.9973 -10.9973
   -10.9969 -10.9969 -10.9965 -10.9965 -10.7659 -10.7659 -10.7658 -10.7658
     1.7454   1.7454   4.4818   4.4818   4.4818   4.4818   4.4818   4.4818
     6.0849   6.0849   6.0852   6.0852   6.0856   6.0856   7.6402   7.6402
     7.6404   7.6404   7.6405   7.6405   8.1546   8.1546  10.6313  10.6314
    10.6315  10.6316  10.7913  10.7913  13.2286  13.2286

          k = 0.0000 0.0000 0.2500 (  6023 PWs)   bands (ev):

   -34.5618 -34.5618 -34.5198 -34.5198 -34.5117 -34.5117 -34.5102 -34.5102
   -15.3739 -15.3739 -15.3727 -15.3727 -15.3418 -15.3418 -15.1812 -15.1812
   -11.2829 -11.2826 -11.2822 -11.2819 -11.2392 -11.2391 -11.0347 -11.0344
   -11.0340 -11.0337 -10.9637 -10.9637 -10.8556 -10.8555 -10.8004 -10.8004
     2.2001   2.2002   4.6941   4.6942   4.6943   4.6944   4.7774   4.7775
     4.9997   4.9997   5.8337   5.8340   5.8341   5.8344   7.0175   7.0176
     8.0648   8.0650   8.0650   8.0653   8.6530   8.6530  10.9097  10.9097
    11.0393  11.0400  12.3203  12.3209  12.3486  12.3486

          k = 0.0000 0.0000-0.5000 (  5942 PWs)   bands (ev):

   -34.5415 -34.5415 -34.5401 -34.5401 -34.5116 -34.5116 -34.5102 -34.5102
   -15.3729 -15.3729 -15.3717 -15.3717 -15.2628 -15.2628 -15.2615 -15.2615
   -11.2429 -11.2429 -11.2419 -11.2419 -11.0843 -11.0843 -11.0832 -11.0832
   -11.0572 -11.0572 -11.0561 -11.0561 -10.8834 -10.8834 -10.8821 -10.8821
     3.4156   3.4156   3.4173   3.4173   5.1322   5.1322   5.1327   5.1327
     5.3588   5.3588   5.3590   5.3590   5.6487   5.6487   5.6511   5.6511
     8.7082   8.7082   8.7084   8.7084  10.3996  10.3996  10.4011  10.4011
    11.5214  11.5214  11.5219  11.5219  11.7907  11.7909

          k = 0.0000 0.2500 0.2500 (  6016 PWs)   bands (ev):

   -34.5543 -34.5543 -34.5185 -34.5185 -34.5184 -34.5184 -34.5120 -34.5120
   -15.3687 -15.3687 -15.3465 -15.3465 -15.3463 -15.3463 -15.2106 -15.2106
   -11.2672 -11.2672 -11.2352 -11.2351 -11.2350 -11.2349 -11.0379 -11.0379
   -10.9899 -10.9899 -10.9899 -10.9899 -10.9472 -10.9472 -10.8111 -10.8111
     2.5913   2.5913   4.7484   4.7484   4.8905   4.8908   4.8925   4.8926
     5.0420   5.0423   5.0443   5.0443   5.6907   5.6907   6.5047   6.5047
     8.4521   8.4521   8.8282   8.8283   8.8284   8.8285  10.8969  10.8969
    11.1903  11.1903  12.3958  12.3960  12.5740  12.5742

          k = 0.0000 0.2500-0.5000 (  6018 PWs)   bands (ev):

   -34.5371 -34.5371 -34.5357 -34.5357 -34.5160 -34.5160 -34.5145 -34.5145
   -15.3582 -15.3581 -15.3569 -15.3569 -15.2803 -15.2803 -15.2791 -15.2790
   -11.2404 -11.2400 -11.2398 -11.2394 -11.1065 -11.1062 -11.1060 -11.1057
   -11.0309 -11.0305 -11.0303 -11.0299 -10.8913 -10.8910 -10.8906 -10.8903
     3.6407   3.6409   3.6422   3.6424   4.8776   4.8781   4.8785   4.8790
     5.3398   5.3399   5.3405   5.3407   5.6040   5.6040   5.6059   5.6060
     9.0541   9.0542   9.0542   9.0543  10.2365  10.2366  10.2373  10.2374
    11.8768  11.8770  11.8772  11.8773  11.9023  11.9025

          k = 0.0000-0.5000-0.5000 (  6024 PWs)   bands (ev):

   -34.5271 -34.5271 -34.5259 -34.5259 -34.5259 -34.5259 -34.5242 -34.5242
   -15.3212 -15.3212 -15.3201 -15.3201 -15.3200 -15.3200 -15.3186 -15.3186
   -11.1926 -11.1926 -11.1924 -11.1924 -11.1920 -11.1920 -11.1918 -11.1918
   -10.9428 -10.9428 -10.9424 -10.9424 -10.9421 -10.9421 -10.9416 -10.9416
     4.2160   4.2160   4.2176   4.2176   4.2180   4.2180   4.2192   4.2192
     5.4723   5.4723   5.4761   5.4761   5.4763   5.4763   5.4802   5.4802
     9.8019   9.8019   9.8040   9.8040   9.8040   9.8040   9.8059   9.8059
    11.8702  11.8705  11.8714  11.8716  11.8726  11.8730

          k = 0.2500 0.2500 0.2500 (  6007 PWs)   bands (ev):

   -34.5482 -34.5482 -34.5193 -34.5193 -34.5185 -34.5185 -34.5173 -34.5173
   -15.3482 -15.3482 -15.3474 -15.3474 -15.3465 -15.3464 -15.2356 -15.2355
   -11.2456 -11.2452 -11.2451 -11.2448 -11.2447 -11.2445 -11.0297 -11.0297
   -10.9815 -10.9811 -10.9809 -10.9808 -10.9803 -10.9803 -10.8094 -10.8094
     2.8864   2.8865   4.5414   4.5417   4.5431   4.5434   4.5435   4.5437
     5.4722   5.4723   5.4728   5.4730   5.4747   5.4750   6.2479   6.2480
     9.0715   9.0716   9.0718   9.0720   9.0733   9.0734  10.9429  10.9429
    11.1420  11.1422  12.0211  12.0213  12.0216  12.0217

          k = 0.2500 0.2500-0.5000 (  6004 PWs)   bands (ev):

   -34.5340 -34.5340 -34.5326 -34.5326 -34.5190 -34.5190 -34.5176 -34.5176
   -15.3489 -15.3489 -15.3477 -15.3477 -15.2939 -15.2939 -15.2927 -15.2926
   -11.2546 -11.2543 -11.2541 -11.2538 -11.1606 -11.1605 -11.1601 -11.1599
   -10.9729 -10.9727 -10.9724 -10.9721 -10.8733 -10.8732 -10.8727 -10.8725
     3.6728   3.6729   3.6743   3.6745   4.3929   4.3931   4.3938   4.3939
     5.7007   5.7010   5.7013   5.7018   5.7413   5.7416   5.7432   5.7434
     9.4211   9.4212   9.4213   9.4214  10.3634  10.3635  10.3651  10.3651
    11.2572  11.2574  11.2575  11.2578  11.5369  11.5370

          k = 0.2500-0.5000-0.5000 (  6000 PWs)   bands (ev):

   -34.5271 -34.5271 -34.5259 -34.5259 -34.5259 -34.5259 -34.5242 -34.5242
   -15.3241 -15.3241 -15.3231 -15.3231 -15.3231 -15.3231 -15.3217 -15.3217
   -11.2345 -11.2344 -11.2343 -11.2343 -11.2337 -11.2336 -11.2336 -11.2335
   -10.8929 -10.8929 -10.8927 -10.8926 -10.8920 -10.8919 -10.8918 -10.8917
     3.8932   3.8932   3.8944   3.8945   3.8947   3.8948   3.8958   3.8958
     5.8829   5.8830   5.8853   5.8854   5.8855   5.8857   5.8880   5.8882
    10.1838  10.1839  10.1857  10.1859  10.1859  10.1860  10.1876  10.1877
    11.1088  11.1090  11.1099  11.1099  11.1106  11.1108

          k =-0.5000-0.5000-0.5000 (  6008 PWs)   bands (ev):

   -34.5270 -34.5270 -34.5258 -34.5258 -34.5258 -34.5258 -34.5242 -34.5242
   -15.3271 -15.3271 -15.3261 -15.3261 -15.3261 -15.3261 -15.3247 -15.3247
   -11.2664 -11.2664 -11.2663 -11.2663 -11.2656 -11.2656 -11.2655 -11.2655
   -10.8528 -10.8528 -10.8528 -10.8528 -10.8518 -10.8518 -10.8518 -10.8518
     3.6672   3.6672   3.6686   3.6686   3.6687   3.6687   3.6698   3.6698
     6.1997   6.1997   6.2008   6.2008   6.2010   6.2010   6.2023   6.2023
    10.6585  10.6585  10.6587  10.6587  10.6588  10.6588  10.6589  10.6589
    10.8450  10.8450  10.8451  10.8451  10.8453  10.8453

          k = 0.2500 0.0000 0.0000 (  6023 PWs)   bands (ev):

   -34.5618 -34.5618 -34.5198 -34.5198 -34.5111 -34.5111 -34.5107 -34.5107
   -15.3734 -15.3734 -15.3733 -15.3732 -15.3418 -15.3417 -15.1812 -15.1812
   -11.2827 -11.2825 -11.2822 -11.2822 -11.2392 -11.2391 -11.0345 -11.0344
   -11.0341 -11.0339 -10.9637 -10.9637 -10.8556 -10.8555 -10.8004 -10.8004
     2.2001   2.2002   4.6941   4.6942   4.6944   4.6944   4.7774   4.7775
     4.9996   4.9997   5.8337   5.8339   5.8343   5.8345   7.0174   7.0176
     8.0648   8.0650   8.0651   8.0653   8.6530   8.6530  10.9097  10.9097
    11.0392  11.0401  12.3201  12.3210  12.3486  12.3486

          k =-0.5000 0.0000 0.0000 (  5942 PWs)   bands (ev):

   -34.5409 -34.5409 -34.5407 -34.5407 -34.5110 -34.5110 -34.5107 -34.5107
   -15.3724 -15.3724 -15.3722 -15.3722 -15.2623 -15.2623 -15.2621 -15.2621
   -11.2425 -11.2425 -11.2423 -11.2423 -11.0839 -11.0839 -11.0837 -11.0837
   -11.0567 -11.0567 -11.0565 -11.0565 -10.8828 -10.8828 -10.8826 -10.8826
     3.4163   3.4163   3.4165   3.4165   5.1322   5.1322   5.1328   5.1328
     5.3589   5.3589   5.3589   5.3589   5.6496   5.6496   5.6501   5.6501
     8.7082   8.7082   8.7084   8.7084  10.4000  10.4000  10.4006  10.4007
    11.5215  11.5215  11.5217  11.5217  11.7908  11.7909

          k = 0.0000 0.2500-0.2500 (  6016 PWs)   bands (ev):

   -34.5543 -34.5543 -34.5185 -34.5185 -34.5184 -34.5184 -34.5120 -34.5120
   -15.3687 -15.3687 -15.3466 -15.3465 -15.3462 -15.3462 -15.2106 -15.2105
   -11.2673 -11.2672 -11.2352 -11.2351 -11.2349 -11.2349 -11.0380 -11.0378
   -10.9902 -10.9901 -10.9896 -10.9896 -10.9473 -10.9472 -10.8111 -10.8111
     2.5913   2.5914   4.7483   4.7487   4.8895   4.8898   4.8934   4.8937
     5.0412   5.0417   5.0446   5.0451   5.6906   5.6907   6.5045   6.5046
     8.4521   8.4521   8.8267   8.8268   8.8297   8.8298  10.8970  10.8970
    11.1900  11.1906  12.3958  12.3959  12.5737  12.5744

          k = 0.2500 0.0000-0.2500 (  6016 PWs)   bands (ev):

   -34.5543 -34.5543 -34.5191 -34.5191 -34.5177 -34.5177 -34.5121 -34.5121
   -15.3687 -15.3687 -15.3470 -15.3470 -15.3458 -15.3458 -15.2106 -15.2105
   -11.2673 -11.2672 -11.2353 -11.2353 -11.2347 -11.2347 -11.0380 -11.0379
   -10.9904 -10.9901 -10.9896 -10.9895 -10.9473 -10.9472 -10.8111 -10.8111
     2.5914   2.5916   4.7487   4.7489   4.8901   4.8911   4.8922   4.8931
     5.0415   5.0426   5.0434   5.0445   5.6902   5.6908   6.5042   6.5044
     8.4518   8.4522   8.8273   8.8273   8.8289   8.8290  10.8972  10.8973
    11.1902  11.1906  12.3957  12.3958  12.5742  12.5745

          k =-0.2500 0.0000-0.2500 (  6016 PWs)   bands (ev):

   -34.5543 -34.5543 -34.5191 -34.5191 -34.5177 -34.5177 -34.5121 -34.5121
   -15.3687 -15.3687 -15.3470 -15.3470 -15.3458 -15.3457 -15.2106 -15.2105
   -11.2673 -11.2672 -11.2354 -11.2353 -11.2348 -11.2347 -11.0380 -11.0378
   -10.9903 -10.9902 -10.9896 -10.9894 -10.9472 -10.9472 -10.8111 -10.8111
     2.5911   2.5912   4.7479   4.7482   4.8901   4.8911   4.8920   4.8932
     5.0419   5.0430   5.0436   5.0448   5.6905   5.6912   6.5048   6.5050
     8.4520   8.4524   8.8277   8.8279   8.8292   8.8292  10.8966  10.8967
    11.1900  11.1904  12.3959  12.3960  12.5734  12.5742

          k = 0.2500 0.0000 0.5000 (  6018 PWs)   bands (ev):

   -34.5371 -34.5371 -34.5357 -34.5357 -34.5160 -34.5160 -34.5145 -34.5145
   -15.3582 -15.3581 -15.3569 -15.3569 -15.2803 -15.2803 -15.2791 -15.2790
   -11.2403 -11.2401 -11.2396 -11.2396 -11.1064 -11.1063 -11.1058 -11.1058
   -11.0307 -11.0307 -11.0302 -11.0301 -10.8912 -10.8912 -10.8905 -10.8904
     3.6406   3.6408   3.6422   3.6424   4.8775   4.8779   4.8787   4.8790
     5.3395   5.3400   5.3403   5.3410   5.6039   5.6040   5.6059   5.6061
     9.0540   9.0541   9.0543   9.0544  10.2363  10.2364  10.2375  10.2376
    11.8766  11.8768  11.8773  11.8775  11.9022  11.9028

          k =-0.5000-0.2500 0.0000 (  6018 PWs)   bands (ev):

   -34.5365 -34.5365 -34.5363 -34.5363 -34.5154 -34.5154 -34.5151 -34.5151
   -15.3576 -15.3576 -15.3575 -15.3574 -15.2798 -15.2798 -15.2796 -15.2796
   -11.2402 -11.2400 -11.2397 -11.2397 -11.1063 -11.1062 -11.1060 -11.1059
   -11.0307 -11.0305 -11.0303 -11.0301 -10.8910 -10.8910 -10.8908 -10.8906
     3.6411   3.6413   3.6418   3.6419   4.8774   4.8779   4.8787   4.8792
     5.3393   5.3400   5.3405   5.3410   5.6044   5.6047   5.6053   5.6054
     9.0540   9.0542   9.0543   9.0544  10.2364  10.2365  10.2374  10.2374
    11.8766  11.8768  11.8773  11.8775  11.9022  11.9025

          k =-0.5000 0.0000 0.5000 (  6024 PWs)   bands (ev):

   -34.5271 -34.5271 -34.5259 -34.5259 -34.5259 -34.5259 -34.5242 -34.5242
   -15.3211 -15.3211 -15.3201 -15.3201 -15.3200 -15.3200 -15.3186 -15.3186
   -11.1928 -11.1928 -11.1927 -11.1927 -11.1917 -11.1917 -11.1916 -11.1916
   -10.9430 -10.9430 -10.9428 -10.9428 -10.9416 -10.9416 -10.9415 -10.9415
     4.2161   4.2161   4.2175   4.2175   4.2179   4.2179   4.2192   4.2192
     5.4737   5.4737   5.4747   5.4747   5.4775   5.4775   5.4790   5.4790
     9.8027   9.8027   9.8031   9.8031   9.8045   9.8045   9.8054   9.8054
    11.8707  11.8709  11.8711  11.8716  11.8724  11.8725

          k =-0.2500 0.2500-0.2500 (  6007 PWs)   bands (ev):

   -34.5482 -34.5482 -34.5193 -34.5193 -34.5185 -34.5185 -34.5173 -34.5173
   -15.3482 -15.3482 -15.3474 -15.3474 -15.3464 -15.3464 -15.2356 -15.2355
   -11.2456 -11.2453 -11.2450 -11.2449 -11.2446 -11.2444 -11.0298 -11.0297
   -10.9815 -10.9812 -10.9811 -10.9806 -10.9804 -10.9802 -10.8094 -10.8094
     2.8869   2.8871   4.5416   4.5418   4.5428   4.5431   4.5442   4.5444
     5.4716   5.4720   5.4729   5.4731   5.4739   5.4743   6.2470   6.2472
     9.0705   9.0706   9.0721   9.0721   9.0734   9.0735  10.9431  10.9431
    11.1422  11.1425  12.0208  12.0212  12.0213  12.0218

          k = 0.2500-0.2500-0.2500 (  6007 PWs)   bands (ev):

   -34.5482 -34.5482 -34.5193 -34.5193 -34.5185 -34.5185 -34.5173 -34.5173
   -15.3482 -15.3482 -15.3474 -15.3474 -15.3464 -15.3464 -15.2356 -15.2355
   -11.2454 -11.2453 -11.2452 -11.2448 -11.2447 -11.2444 -11.0298 -11.0297
   -10.9813 -10.9813 -10.9810 -10.9807 -10.9805 -10.9802 -10.8094 -10.8094
     2.8873   2.8874   4.5422   4.5424   4.5426   4.5428   4.5443   4.5445
     5.4712   5.4714   5.4731   5.4733   5.4737   5.4738   6.2465   6.2466
     9.0707   9.0707   9.0722   9.0724   9.0727   9.0727  10.9433  10.9433
    11.1424  11.1426  12.0208  12.0210  12.0211  12.0214

          k =-0.2500 0.2500 0.5000 (  6004 PWs)   bands (ev):

   -34.5340 -34.5340 -34.5326 -34.5326 -34.5190 -34.5190 -34.5176 -34.5176
   -15.3490 -15.3489 -15.3477 -15.3477 -15.2939 -15.2939 -15.2927 -15.2927
   -11.2545 -11.2543 -11.2540 -11.2538 -11.1607 -11.1605 -11.1601 -11.1600
   -10.9729 -10.9727 -10.9724 -10.9722 -10.8734 -10.8732 -10.8727 -10.8726
     3.6735   3.6738   3.6750   3.6751   4.3924   4.3924   4.3934   4.3936
     5.7009   5.7014   5.7017   5.7020   5.7405   5.7407   5.7422   5.7425
     9.4209   9.4210   9.4213   9.4214  10.3637  10.3637  10.3649  10.3651
    11.2572  11.2574  11.2576  11.2577  11.5363  11.5364

          k =-0.5000-0.2500 0.2500 (  6004 PWs)   bands (ev):

   -34.5333 -34.5333 -34.5333 -34.5333 -34.5184 -34.5184 -34.5181 -34.5181
   -15.3484 -15.3484 -15.3483 -15.3482 -15.2934 -15.2934 -15.2932 -15.2932
   -11.2545 -11.2543 -11.2540 -11.2539 -11.1605 -11.1604 -11.1602 -11.1602
   -10.9729 -10.9727 -10.9724 -10.9722 -10.8731 -10.8731 -10.8729 -10.8727
     3.6739   3.6739   3.6742   3.6742   4.3921   4.3924   4.3938   4.3941
     5.7008   5.7010   5.7019   5.7021   5.7413   5.7418   5.7420   5.7421
     9.4209   9.4209   9.4215   9.4215  10.3640  10.3641  10.3645  10.3647
    11.2571  11.2572  11.2577  11.2578  11.5364  11.5368

          k = 0.5000-0.2500-0.2500 (  6004 PWs)   bands (ev):

   -34.5333 -34.5333 -34.5333 -34.5333 -34.5184 -34.5184 -34.5181 -34.5181
   -15.3484 -15.3484 -15.3483 -15.3482 -15.2934 -15.2934 -15.2932 -15.2932
   -11.2543 -11.2542 -11.2541 -11.2541 -11.1604 -11.1603 -11.1603 -11.1602
   -10.9726 -10.9726 -10.9725 -10.9725 -10.8730 -10.8730 -10.8729 -10.8729
     3.6732   3.6732   3.6746   3.6746   4.3931   4.3932   4.3933   4.3934
     5.7009   5.7013   5.7014   5.7018   5.7413   5.7413   5.7427   5.7427
     9.4211   9.4211   9.4213   9.4213  10.3638  10.3639  10.3647  10.3648
    11.2572  11.2572  11.2577  11.2577  11.5367  11.5367

          k =-0.5000 0.2500 0.5000 (  6000 PWs)   bands (ev):

   -34.5271 -34.5271 -34.5259 -34.5259 -34.5259 -34.5259 -34.5242 -34.5242
   -15.3241 -15.3241 -15.3231 -15.3231 -15.3231 -15.3231 -15.3217 -15.3217
   -11.2346 -11.2345 -11.2344 -11.2343 -11.2337 -11.2336 -11.2335 -11.2334
   -10.8930 -10.8929 -10.8928 -10.8928 -10.8919 -10.8918 -10.8917 -10.8917
     3.8931   3.8932   3.8945   3.8945   3.8947   3.8947   3.8957   3.8959
     5.8835   5.8838   5.8845   5.8850   5.8859   5.8863   5.8873   5.8876
    10.1845  10.1846  10.1852  10.1853  10.1862  10.1863  10.1872  10.1873
    11.1093  11.1094  11.1096  11.1101  11.1104  11.1106

     the Fermi energy is     9.4739 ev

!    total energy              =   -2248.42548621 Ry
     Harris-Foulkes estimate   =   -2248.42548622 Ry
     estimated scf accuracy    <          4.5E-09 Ry

     total all-electron energy =    -90252.768863 Ry

     The total energy is the sum of the following terms:

     one-electron contribution =     -47.14727888 Ry
     hartree contribution      =      44.08776362 Ry
     xc contribution           =    -257.25303498 Ry
     ewald contribution        =    -240.05171327 Ry
     one-center paw contrib.   =   -1748.05939867 Ry
     smearing contrib. (-TS)   =      -0.00182404 Ry

     convergence has been achieved in   7 iterations

     Forces acting on atoms (cartesian axes, Ry/au):

     atom    1 type  1   force =     0.00033686   -0.00037166   -0.00037166
     atom    2 type  1   force =    -0.00024504   -0.00029035   -0.00029035
     atom    3 type  1   force =    -0.00003389   -0.00004260   -0.00006591
     atom    4 type  1   force =    -0.00003389   -0.00006591   -0.00004260
     atom    5 type  2   force =    -0.00006112   -0.00040937   -0.00040937
     atom    6 type  2   force =     0.00000729    0.00019740    0.00005668
     atom    7 type  2   force =     0.00000797    0.00019360    0.00019360
     atom    8 type  2   force =     0.00000729    0.00005668    0.00019740
     atom    9 type  2   force =     0.00000182    0.00019358    0.00019931
     atom   10 type  2   force =     0.00000486    0.00014180    0.00014180
     atom   11 type  2   force =     0.00000182    0.00019931    0.00019358
     atom   12 type  2   force =     0.00000604    0.00019750    0.00019750

     Total force =     0.001185     Total SCF correction =     0.000157
     SCF correction compared to forces is large: reduce conv_thr to get better values


     Computing stress (Cartesian axis) and pressure

     Message from routine stres:
     noncollinear stress + GGA not implemented

     Writing output data file 2300.save
 
     init_run     :      4.90s CPU      5.11s WALL (       2 calls)
     electrons    :    164.24s CPU    169.92s WALL (       7 calls)
     update_pot   :      1.36s CPU      1.74s WALL (       5 calls)
     forces       :      9.57s CPU      9.68s WALL (       7 calls)

     Called by init_run:
     wfcinit      :      4.14s CPU      4.29s WALL (       2 calls)
     potinit      :      0.31s CPU      0.33s WALL (       2 calls)

     Called by electrons:
     c_bands      :    137.01s CPU    140.61s WALL (      37 calls)
     sum_band     :     20.32s CPU     20.96s WALL (      37 calls)
     v_of_rho     :      0.13s CPU      0.13s WALL (      39 calls)
     newd         :      2.80s CPU      2.83s WALL (      39 calls)
     PAW_pot      :      5.73s CPU      5.81s WALL (      44 calls)
     mix_rho      :      0.16s CPU      0.16s WALL (      37 calls)

     Called by c_bands:
     init_us_2    :      0.88s CPU      0.90s WALL (    2112 calls)
     cegterg      :    125.92s CPU    129.41s WALL (     888 calls)

     Called by sum_band:
     sum_band:bec :      4.78s CPU      4.79s WALL (    1008 calls)
     addusdens    :      1.16s CPU      1.18s WALL (      37 calls)

     Called by *egterg:
     h_psi        :     80.10s CPU     83.23s WALL (    3635 calls)
     s_psi        :      6.75s CPU      6.80s WALL (    3635 calls)
     g_psi        :      0.27s CPU      0.28s WALL (    2699 calls)
     cdiaghg      :     23.45s CPU     23.55s WALL (    3347 calls)

     Called by h_psi:
     h_psi:pot    :     78.95s CPU     82.06s WALL (    3635 calls)
     h_psi:calbec :      4.46s CPU      4.85s WALL (    3635 calls)
     vloc_psi     :     67.58s CPU     70.25s WALL (    3635 calls)
     add_vuspsi   :      6.88s CPU      6.93s WALL (    3635 calls)

     General routines
     calbec       :      7.32s CPU      7.94s WALL (    5315 calls)
     fft          :      0.16s CPU      0.18s WALL (     810 calls)
     fftw         :     72.61s CPU     75.48s WALL (  716940 calls)
     davcio       :      0.00s CPU      0.02s WALL (      48 calls)
 
     Parallel routines
     fft_scatter  :     21.93s CPU     22.81s WALL (  717750 calls)
 
     PWSCF        :  3m 8.62s CPU     3m50.55s WALL

 
   This run was terminated on:  17: 8:10  13Oct2022            

=------------------------------------------------------------------------------=
   JOB DONE.
=------------------------------------------------------------------------------=
Removing 2300 from /home/shaharpit/tmp
