
     Program PWSCF v.6.1 (svn rev. 13369) starts on 13Oct2022 at 17: 4:26 

     This program is part of the open-source Quantum ESPRESSO suite
     for quantum simulation of materials; please cite
         "P. Giannozzi et al., J. Phys.:Condens. Matter 21 395502 (2009);
          URL http://www.quantum-espresso.org", 
     in publications or presentations arising from this work. More details at
     http://www.quantum-espresso.org/quote

     Parallel version (MPI), running on    16 processors
     R & G space division:  proc/nbgrp/npool/nimage =      16
     Reading input from ./fcc_75.in

     Current dimensions of program PWSCF are:
     Max number of different atomic species (ntypx) = 10
     Max number of k-points (npk) =  40000
     Max angular momentum in pseudopotentials (lmaxx) =  3
               file Gd.rel-pbe-spdn-kjpaw_psl.1.0.0.UPF: wavefunction(s)  5P 5P renormalized
               file H.pbe-kjpaw_psl.0.1.UPF: wavefunction(s)  1S renormalized

     Subspace diagonalization in iterative solution of the eigenvalue problem:
     a serial algorithm will be used

 
     Parallelization info
     --------------------
     sticks:   dense  smooth     PW     G-vecs:    dense   smooth      PW
     Min          99      99     28                 2995     2995     467
     Max         100     100     30                 2998     2998     470
     Sum        1597    1597    465                47937    47937    7497
 


     bravais-lattice index     =            0
     lattice parameter (alat)  =      10.0212  a.u.
     unit-cell volume          =    1006.3788 (a.u.)^3
     number of atoms/cell      =           10
     number of atomic types    =            2
     number of electrons       =        50.00
     number of Kohn-Sham states=           60
     kinetic-energy cutoff     =      50.0000  Ry
     charge density cutoff     =     200.0000  Ry
     convergence threshold     =      1.0E-06
     mixing beta               =       0.7000
     number of iterations used =            8  plain     mixing
     Exchange-correlation      =  SLA  PW   PBX  PBC ( 1  4  3  4 0 0)
     nstep                     =          150

     Non magnetic calculation with spin-orbit


     celldm(1)=  10.021218  celldm(2)=   0.000000  celldm(3)=   0.000000
     celldm(4)=   0.000000  celldm(5)=   0.000000  celldm(6)=   0.000000

     crystal axes: (cart. coord. in units of alat)
               a(1) = (   1.000000   0.000000   0.000000 )  
               a(2) = (   0.000000   1.000000   0.000000 )  
               a(3) = (   0.000000   0.000000   1.000000 )  

     reciprocal axes: (cart. coord. in units 2 pi/alat)
               b(1) = (  1.000000  0.000000  0.000000 )  
               b(2) = (  0.000000  1.000000  0.000000 )  
               b(3) = (  0.000000  0.000000  1.000000 )  


     PseudoPot. # 1 for Gd read from file:
     /home/shaharpit/MeamGdH/dft/qe_potentials/Gd.rel-pbe-spdn-kjpaw_psl.1.0.0.UPF
     MD5 check sum: cf50ec46d1536b4a0251694df1946a53
     Pseudo is Projector augmented-wave + core cor, Zval = 11.0
     Generated using "atomic" code by A. Dal Corso  v.6.2.2
     Shape of augmentation charge: PSQ
     Using radial grid of 1263 points, 10 beta functions with: 
                l(1) =   0
                l(2) =   0
                l(3) =   1
                l(4) =   1
                l(5) =   1
                l(6) =   1
                l(7) =   2
                l(8) =   2
                l(9) =   2
               l(10) =   2
     Q(r) pseudized with 0 coefficients 


     PseudoPot. # 2 for  H read from file:
     /home/shaharpit/MeamGdH/dft/qe_potentials/H.pbe-kjpaw_psl.0.1.UPF
     MD5 check sum: fbb168fef676c0aaadbafd73f5b1efa8
     Pseudo is Projector augmented-wave, Zval =  1.0
     Generated using "atomic" code by A. Dal Corso  v.5.0.2 svn rev. 9415
     Shape of augmentation charge: PSQ
     Using radial grid of  929 points,  2 beta functions with: 
                l(1) =   0
                l(2) =   0
     Q(r) pseudized with 0 coefficients 


     atomic species   valence    mass     pseudopotential
        Gd            11.00   157.25000     Gd( 1.00)
        H              1.00     1.00794      H( 1.00)

     No symmetry found



   Cartesian axes

     site n.     atom                  positions (alat units)
         1           Gd  tau(   1) = (   0.0000000   0.0000000   0.0000000  )
         2           Gd  tau(   2) = (   0.0000000   0.5000000   0.5000000  )
         3           Gd  tau(   3) = (   0.5000000   0.0000000   0.5000000  )
         4           Gd  tau(   4) = (   0.5000000   0.5000000   0.0000000  )
         5           H   tau(   5) = (   0.2500000   0.7539000   0.7539000  )
         6           H   tau(   6) = (   0.2500000   0.7501000   0.2500000  )
         7           H   tau(   7) = (   0.2500000   0.2500000   0.2500000  )
         8           H   tau(   8) = (   0.2500000   0.2500000   0.7501000  )
         9           H   tau(   9) = (   0.7501000   0.2500000   0.7501000  )
        10           H   tau(  10) = (   0.7501000   0.2500000   0.2500000  )

     number of k points=    36  gaussian smearing, width (Ry)=  0.0100
                       cart. coord. in units 2pi/alat
        k(    1) = (   0.0000000   0.0000000   0.0000000), wk =   0.0156250
        k(    2) = (   0.0000000   0.0000000   0.2500000), wk =   0.0312500
        k(    3) = (   0.0000000   0.0000000  -0.5000000), wk =   0.0156250
        k(    4) = (   0.0000000   0.2500000   0.2500000), wk =   0.0312500
        k(    5) = (   0.0000000   0.2500000  -0.5000000), wk =   0.0312500
        k(    6) = (   0.0000000  -0.5000000  -0.5000000), wk =   0.0156250
        k(    7) = (   0.2500000   0.2500000   0.2500000), wk =   0.0312500
        k(    8) = (   0.2500000   0.2500000  -0.5000000), wk =   0.0312500
        k(    9) = (   0.2500000  -0.5000000  -0.5000000), wk =   0.0312500
        k(   10) = (  -0.5000000  -0.5000000  -0.5000000), wk =   0.0156250
        k(   11) = (   0.2500000   0.0000000   0.0000000), wk =   0.0312500
        k(   12) = (   0.0000000   0.2500000   0.0000000), wk =   0.0312500
        k(   13) = (  -0.5000000   0.0000000   0.0000000), wk =   0.0156250
        k(   14) = (   0.0000000  -0.5000000   0.0000000), wk =   0.0156250
        k(   15) = (   0.0000000  -0.2500000   0.2500000), wk =   0.0312500
        k(   16) = (   0.2500000   0.0000000  -0.2500000), wk =   0.0312500
        k(   17) = (  -0.2500000   0.0000000  -0.2500000), wk =   0.0312500
        k(   18) = (   0.2500000  -0.2500000   0.0000000), wk =   0.0312500
        k(   19) = (  -0.2500000  -0.2500000   0.0000000), wk =   0.0312500
        k(   20) = (   0.2500000   0.0000000   0.5000000), wk =   0.0312500
        k(   21) = (  -0.5000000  -0.2500000   0.0000000), wk =   0.0312500
        k(   22) = (   0.0000000  -0.5000000   0.2500000), wk =   0.0312500
        k(   23) = (   0.2500000  -0.5000000   0.0000000), wk =   0.0312500
        k(   24) = (  -0.5000000   0.0000000   0.2500000), wk =   0.0312500
        k(   25) = (  -0.5000000   0.0000000   0.5000000), wk =   0.0156250
        k(   26) = (  -0.5000000   0.5000000   0.0000000), wk =   0.0156250
        k(   27) = (  -0.2500000  -0.2500000   0.2500000), wk =   0.0312500
        k(   28) = (  -0.2500000   0.2500000  -0.2500000), wk =   0.0312500
        k(   29) = (   0.2500000  -0.2500000  -0.2500000), wk =   0.0312500
        k(   30) = (  -0.2500000   0.2500000   0.5000000), wk =   0.0312500
        k(   31) = (  -0.5000000  -0.2500000   0.2500000), wk =   0.0312500
        k(   32) = (   0.5000000  -0.2500000  -0.2500000), wk =   0.0312500
        k(   33) = (  -0.2500000  -0.5000000   0.2500000), wk =   0.0312500
        k(   34) = (  -0.2500000   0.5000000  -0.2500000), wk =   0.0312500
        k(   35) = (  -0.5000000   0.2500000   0.5000000), wk =   0.0312500
        k(   36) = (  -0.5000000   0.5000000   0.2500000), wk =   0.0312500

     Dense  grid:    47937 G-vectors     FFT dimensions: (  45,  45,  45)

     Estimated max dynamical RAM per process >      38.88MB

     Estimated total allocated dynamical RAM >     622.05MB

     Check: negative/imaginary core charge=   -0.000002    0.000000

     Initial potential from superposition of free atoms

     starting charge   49.92376, renormalised to   50.00000
     Starting wfc are  116 randomized atomic wfcs
     Checking if some PAW data can be deallocated... 

     total cpu time spent up to now is        5.0 secs

     per-process dynamical memory:    89.7 Mb

     Self-consistent Calculation

     iteration #  1     ecut=    50.00 Ry     beta=0.70
     Davidson diagonalization with overlap
     ethr =  1.00E-02,  avg # of iterations =  2.0

     total cpu time spent up to now is       10.1 secs

     total energy              =   -2245.75765963 Ry
     Harris-Foulkes estimate   =   -2246.08004852 Ry
     estimated scf accuracy    <       0.51732192 Ry

     iteration #  2     ecut=    50.00 Ry     beta=0.70
     Davidson diagonalization with overlap
     ethr =  1.03E-03,  avg # of iterations =  2.9

     total cpu time spent up to now is       15.9 secs

     total energy              =   -2245.83551675 Ry
     Harris-Foulkes estimate   =   -2245.93482067 Ry
     estimated scf accuracy    <       0.17611594 Ry

     iteration #  3     ecut=    50.00 Ry     beta=0.70
     Davidson diagonalization with overlap
     ethr =  3.52E-04,  avg # of iterations =  2.6

     total cpu time spent up to now is       21.7 secs

     total energy              =   -2245.88275424 Ry
     Harris-Foulkes estimate   =   -2245.90026062 Ry
     estimated scf accuracy    <       0.03875950 Ry

     iteration #  4     ecut=    50.00 Ry     beta=0.70
     Davidson diagonalization with overlap
     ethr =  7.75E-05,  avg # of iterations =  2.0

     total cpu time spent up to now is       26.9 secs

     total energy              =   -2245.89051487 Ry
     Harris-Foulkes estimate   =   -2245.89053213 Ry
     estimated scf accuracy    <       0.00022225 Ry

     iteration #  5     ecut=    50.00 Ry     beta=0.70
     Davidson diagonalization with overlap
     c_bands:  2 eigenvalues not converged
     ethr =  4.45E-07,  avg # of iterations =  7.2

     total cpu time spent up to now is       37.0 secs

     total energy              =   -2245.89068318 Ry
     Harris-Foulkes estimate   =   -2245.89069605 Ry
     estimated scf accuracy    <       0.00004344 Ry

     iteration #  6     ecut=    50.00 Ry     beta=0.70
     Davidson diagonalization with overlap
     ethr =  8.69E-08,  avg # of iterations =  2.0

     total cpu time spent up to now is       42.6 secs

     total energy              =   -2245.89069213 Ry
     Harris-Foulkes estimate   =   -2245.89069181 Ry
     estimated scf accuracy    <       0.00000212 Ry

     iteration #  7     ecut=    50.00 Ry     beta=0.70
     Davidson diagonalization with overlap
     ethr =  4.23E-09,  avg # of iterations =  3.4

     total cpu time spent up to now is       48.5 secs

     End of self-consistent calculation

          k = 0.0000 0.0000 0.0000 (  6031 PWs)   bands (ev):

   -34.8280 -34.8280 -34.7758 -34.7758 -34.7703 -34.7703 -34.7629 -34.7629
   -15.6223 -15.6223 -15.6154 -15.6154 -15.6067 -15.6067 -15.3971 -15.3971
   -11.5460 -11.5460 -11.5316 -11.5316 -11.4982 -11.4982 -11.2427 -11.2427
   -11.2348 -11.2348 -11.2272 -11.2272 -11.0173 -11.0173 -11.0018 -11.0018
     1.9788   1.9788   4.2977   4.2977   4.6549   4.6549   4.9768   4.9768
     5.9064   5.9064   6.7776   6.7776   7.5350   7.5350   7.5383   7.5383
     7.5407   7.5407   9.6392   9.6392  10.5656  10.5656  10.5740  10.5740
    10.7351  10.7351  11.7103  11.7103

          k = 0.0000 0.0000 0.2500 (  6023 PWs)   bands (ev):

   -34.8198 -34.8198 -34.7799 -34.7799 -34.7732 -34.7732 -34.7640 -34.7640
   -15.6200 -15.6192 -15.6086 -15.6083 -15.5839 -15.5831 -15.4297 -15.4295
   -11.5162 -11.5159 -11.4757 -11.4756 -11.4641 -11.4630 -11.2803 -11.2799
   -11.2678 -11.2673 -11.1952 -11.1951 -11.1008 -11.1008 -11.0355 -11.0355
     2.4070   2.4072   4.5100   4.5108   4.6678   4.6680   4.8462   4.8464
     5.6429   5.6449   5.9255   5.9257   7.9561   7.9565   7.9596   7.9606
     8.3397   8.3398   9.3526   9.3529   9.9703   9.9704  10.8386  10.8386
    10.9760  10.9769  12.2220  12.2221

          k = 0.0000 0.0000-0.5000 (  5942 PWs)   bands (ev):

   -34.8038 -34.8038 -34.7948 -34.7948 -34.7739 -34.7739 -34.7644 -34.7644
   -15.6170 -15.6170 -15.6092 -15.6092 -15.5115 -15.5115 -15.5033 -15.5033
   -11.4600 -11.4600 -11.4538 -11.4538 -11.3286 -11.3286 -11.3221 -11.3221
   -11.2895 -11.2895 -11.2830 -11.2830 -11.1198 -11.1198 -11.1120 -11.1120
     3.5096   3.5096   3.5260   3.5260   5.0424   5.0424   5.0441   5.0441
     5.3042   5.3042   5.3163   5.3163   8.5852   8.5852   8.5868   8.5868
     8.9096   8.9096   8.9110   8.9110  10.5635  10.5635  10.5730  10.5730
    11.4107  11.4107  11.4148  11.4148

          k = 0.0000 0.2500 0.2500 (  6016 PWs)   bands (ev):

   -34.8129 -34.8129 -34.7801 -34.7801 -34.7774 -34.7774 -34.7665 -34.7665
   -15.6121 -15.6107 -15.5902 -15.5880 -15.5865 -15.5846 -15.4577 -15.4574
   -11.4932 -11.4925 -11.4600 -11.4582 -11.4444 -11.4440 -11.2759 -11.2752
   -11.2299 -11.2297 -11.2202 -11.2200 -11.1803 -11.1799 -11.0517 -11.0517
     2.7596   2.7598   4.6161   4.6168   4.7188   4.7196   4.7919   4.7935
     5.2190   5.2201   5.7490   5.7494   8.2709   8.2716   8.3381   8.3385
     8.5217   8.5226   9.4037   9.4040   9.7405   9.7406  10.8220  10.8220
    11.1260  11.1260  12.2285  12.2287

          k = 0.0000 0.2500-0.5000 (  6018 PWs)   bands (ev):

   -34.7998 -34.7998 -34.7909 -34.7909 -34.7778 -34.7778 -34.7683 -34.7683
   -15.6036 -15.6033 -15.5949 -15.5945 -15.5286 -15.5283 -15.5195 -15.5194
   -11.4698 -11.4695 -11.4472 -11.4471 -11.3420 -11.3417 -11.3327 -11.3310
   -11.2752 -11.2745 -11.2568 -11.2548 -11.1293 -11.1288 -11.1223 -11.1218
     3.6893   3.6895   3.7240   3.7243   4.8360   4.8363   4.8954   4.8989
     5.2564   5.2583   5.2781   5.2794   8.8158   8.8168   8.8675   8.8698
     8.9726   8.9746   9.0082   9.0086  10.2466  10.2467  10.2602  10.2606
    11.7564  11.7584  11.7946  11.7951

          k = 0.0000-0.5000-0.5000 (  6024 PWs)   bands (ev):

   -34.7929 -34.7929 -34.7847 -34.7847 -34.7844 -34.7844 -34.7748 -34.7748
   -15.5722 -15.5722 -15.5661 -15.5661 -15.5599 -15.5599 -15.5531 -15.5531
   -11.4319 -11.4319 -11.4312 -11.4312 -11.4009 -11.4009 -11.3999 -11.3999
   -11.1853 -11.1853 -11.1844 -11.1844 -11.1716 -11.1716 -11.1705 -11.1705
     4.0131   4.0131   4.0137   4.0137   4.5234   4.5234   4.5500   4.5500
     5.2657   5.2657   5.2661   5.2661   8.9001   8.9001   8.9019   8.9019
     9.6950   9.6950   9.6950   9.6950   9.7535   9.7535   9.7541   9.7541
    11.7081  11.7088  11.7117  11.7141

          k = 0.2500 0.2500 0.2500 (  6007 PWs)   bands (ev):

   -34.8071 -34.8071 -34.7827 -34.7827 -34.7774 -34.7774 -34.7696 -34.7696
   -15.5974 -15.5935 -15.5907 -15.5877 -15.5835 -15.5827 -15.4813 -15.4810
   -11.4833 -11.4820 -11.4680 -11.4659 -11.4490 -11.4486 -11.2621 -11.2614
   -11.2267 -11.2260 -11.2132 -11.2113 -11.2071 -11.2058 -11.0514 -11.0514
     3.0106   3.0108   4.3648   4.3653   4.5722   4.5731   4.8189   4.8200
     5.2962   5.2978   5.7380   5.7394   8.2413   8.2418   8.7800   8.7808
     8.9533   8.9540   9.4838   9.4841   9.6872   9.6873  10.8530  10.8532
    11.0581  11.0584  11.8661  11.8669

          k = 0.2500 0.2500-0.5000 (  6004 PWs)   bands (ev):

   -34.7969 -34.7969 -34.7884 -34.7884 -34.7807 -34.7807 -34.7707 -34.7707
   -15.5945 -15.5942 -15.5865 -15.5861 -15.5428 -15.5424 -15.5310 -15.5309
   -11.4876 -11.4874 -11.4609 -11.4604 -11.3979 -11.3973 -11.3756 -11.3751
   -11.2191 -11.2185 -11.2000 -11.1994 -11.1108 -11.1106 -11.1099 -11.1096
     3.5522   3.5529   3.9982   4.0006   4.2284   4.2310   4.7990   4.8009
     5.5179   5.5197   5.5467   5.5479   8.8364   8.8369   9.0361   9.0365
     9.2880   9.2882   9.4777   9.4778  10.3202  10.3207  10.3389  10.3396
    11.0776  11.0786  11.2631  11.2636

          k = 0.2500-0.5000-0.5000 (  6000 PWs)   bands (ev):

   -34.7928 -34.7928 -34.7846 -34.7846 -34.7844 -34.7844 -34.7747 -34.7747
   -15.5750 -15.5749 -15.5690 -15.5690 -15.5626 -15.5625 -15.5558 -15.5556
   -11.4743 -11.4742 -11.4711 -11.4709 -11.4411 -11.4407 -11.4374 -11.4369
   -11.1383 -11.1381 -11.1332 -11.1329 -11.1290 -11.1290 -11.1243 -11.1242
     3.7082   3.7092   3.7211   3.7221   4.3794   4.3810   4.3910   4.3926
     5.6964   5.6973   5.7094   5.7103   9.0820   9.0824   9.0859   9.0863
    10.0369  10.0374  10.0417  10.0421  10.1920  10.1922  10.1949  10.1951
    10.9917  10.9928  10.9943  10.9950

          k =-0.5000-0.5000-0.5000 (  6008 PWs)   bands (ev):

   -34.7928 -34.7928 -34.7846 -34.7846 -34.7844 -34.7844 -34.7747 -34.7747
   -15.5777 -15.5777 -15.5719 -15.5719 -15.5653 -15.5653 -15.5583 -15.5583
   -11.5057 -11.5057 -11.5026 -11.5026 -11.4706 -11.4706 -11.4667 -11.4667
   -11.0996 -11.0996 -11.0940 -11.0940 -11.0930 -11.0930 -11.0879 -11.0879
     3.4882   3.4882   3.5030   3.5030   4.2791   4.2791   4.2794   4.2794
     6.0210   6.0210   6.0356   6.0356   9.2959   9.2959   9.2966   9.2966
    10.4972  10.4972  10.4980  10.4980  10.5927  10.5927  10.5945  10.5945
    10.7041  10.7041  10.7057  10.7057

          k = 0.2500 0.0000 0.0000 (  6023 PWs)   bands (ev):

   -34.8198 -34.8198 -34.7815 -34.7815 -34.7702 -34.7702 -34.7655 -34.7655
   -15.6162 -15.6152 -15.6146 -15.6142 -15.5820 -15.5812 -15.4295 -15.4294
   -11.5093 -11.5080 -11.5042 -11.5037 -11.4466 -11.4457 -11.2719 -11.2715
   -11.2618 -11.2616 -11.2059 -11.2059 -11.0904 -11.0902 -11.0460 -11.0460
     2.3943   2.3945   4.5496   4.5504   4.6180   4.6182   5.0498   5.0500
     5.2542   5.2546   6.2758   6.2773   7.9446   7.9480   7.9530   7.9543
     8.0156   8.0202   9.5984   9.5986   9.8935   9.8936  10.8443  10.8444
    10.9816  10.9832  12.2395  12.2397

          k = 0.0000 0.2500 0.0000 (  6023 PWs)   bands (ev):

   -34.8198 -34.8198 -34.7801 -34.7801 -34.7730 -34.7730 -34.7641 -34.7641
   -15.6186 -15.6183 -15.6114 -15.6109 -15.5822 -15.5820 -15.4294 -15.4294
   -11.5093 -11.5091 -11.5035 -11.5033 -11.4462 -11.4461 -11.2724 -11.2719
   -11.2613 -11.2611 -11.2061 -11.2060 -11.0904 -11.0902 -11.0460 -11.0459
     2.3942   2.3945   4.5492   4.5499   4.6184   4.6186   5.0496   5.0501
     5.2545   5.2546   6.2761   6.2771   7.9448   7.9461   7.9531   7.9547
     8.0184   8.0186   9.5985   9.5986   9.8935   9.8935  10.8444  10.8445
    10.9820  10.9830  12.2396  12.2397

          k =-0.5000 0.0000 0.0000 (  5942 PWs)   bands (ev):

   -34.8012 -34.8012 -34.7987 -34.7987 -34.7702 -34.7702 -34.7668 -34.7668
   -15.6140 -15.6140 -15.6133 -15.6133 -15.5112 -15.5112 -15.5022 -15.5022
   -11.4698 -11.4698 -11.4655 -11.4655 -11.3151 -11.3151 -11.3116 -11.3116
   -11.2951 -11.2951 -11.2579 -11.2579 -11.1296 -11.1296 -11.1244 -11.1244
     3.2235   3.2235   3.8639   3.8639   5.0008   5.0008   5.0205   5.0205
     5.2826   5.2826   5.4583   5.4583   8.2217   8.2217   8.5834   8.5834
     8.5863   8.5863   9.5229   9.5229  10.3114  10.3114  10.7768  10.7768
    11.4016  11.4016  11.4452  11.4452

          k = 0.0000-0.5000 0.0000 (  5942 PWs)   bands (ev):

   -34.8038 -34.8038 -34.7950 -34.7950 -34.7737 -34.7737 -34.7645 -34.7645
   -15.6173 -15.6173 -15.6098 -15.6098 -15.5128 -15.5128 -15.5009 -15.5009
   -11.4713 -11.4713 -11.4640 -11.4640 -11.3164 -11.3164 -11.3099 -11.3099
   -11.2955 -11.2955 -11.2578 -11.2578 -11.1316 -11.1316 -11.1225 -11.1225
     3.2232   3.2232   3.8642   3.8642   5.0008   5.0008   5.0205   5.0205
     5.2822   5.2822   5.4588   5.4588   8.2215   8.2215   8.5833   8.5833
     8.5865   8.5865   9.5229   9.5229  10.3116  10.3116  10.7769  10.7769
    11.4015  11.4015  11.4456  11.4456

          k = 0.0000-0.2500 0.2500 (  6016 PWs)   bands (ev):

   -34.8129 -34.8129 -34.7801 -34.7801 -34.7774 -34.7774 -34.7665 -34.7665
   -15.6122 -15.6107 -15.5903 -15.5880 -15.5865 -15.5846 -15.4576 -15.4575
   -11.4934 -11.4923 -11.4598 -11.4583 -11.4443 -11.4441 -11.2756 -11.2755
   -11.2298 -11.2297 -11.2202 -11.2200 -11.1802 -11.1801 -11.0517 -11.0517
     2.7595   2.7599   4.6157   4.6165   4.7164   4.7194   4.7936   4.7948
     5.2197   5.2200   5.7492   5.7494   8.2705   8.2712   8.3378   8.3384
     8.5222   8.5226   9.4039   9.4039   9.7406   9.7406  10.8220  10.8220
    11.1248  11.1264  12.2285  12.2286

          k = 0.2500 0.0000-0.2500 (  6016 PWs)   bands (ev):

   -34.8128 -34.8128 -34.7820 -34.7820 -34.7749 -34.7749 -34.7672 -34.7672
   -15.6112 -15.6108 -15.5929 -15.5898 -15.5852 -15.5821 -15.4577 -15.4575
   -11.4932 -11.4923 -11.4595 -11.4587 -11.4444 -11.4435 -11.2761 -11.2755
   -11.2302 -11.2298 -11.2200 -11.2194 -11.1804 -11.1800 -11.0519 -11.0518
     2.7613   2.7616   4.6182   4.6207   4.7183   4.7204   4.7926   4.7933
     5.2160   5.2176   5.7448   5.7457   8.2695   8.2723   8.3371   8.3408
     8.5179   8.5187   9.4021   9.4026   9.7410   9.7411  10.8241  10.8244
    11.1266  11.1275  12.2282  12.2283

          k =-0.2500 0.0000-0.2500 (  6016 PWs)   bands (ev):

   -34.8128 -34.8128 -34.7819 -34.7819 -34.7749 -34.7749 -34.7672 -34.7672
   -15.6113 -15.6107 -15.5930 -15.5898 -15.5853 -15.5821 -15.4576 -15.4574
   -11.4933 -11.4925 -11.4598 -11.4590 -11.4445 -11.4437 -11.2757 -11.2750
   -11.2301 -11.2299 -11.2200 -11.2195 -11.1805 -11.1800 -11.0516 -11.0515
     2.7578   2.7581   4.6120   4.6143   4.7180   4.7201   4.7921   4.7927
     5.2218   5.2234   5.7529   5.7539   8.2701   8.2729   8.3355   8.3392
     8.5257   8.5266   9.4051   9.4056   9.7401   9.7401  10.8193  10.8196
    11.1244  11.1252  12.2289  12.2291

          k = 0.2500-0.2500 0.0000 (  6016 PWs)   bands (ev):

   -34.8129 -34.8129 -34.7818 -34.7818 -34.7749 -34.7749 -34.7673 -34.7673
   -15.6116 -15.6104 -15.5940 -15.5938 -15.5818 -15.5805 -15.4576 -15.4574
   -11.4949 -11.4937 -11.4716 -11.4707 -11.4332 -11.4325 -11.2660 -11.2655
   -11.2311 -11.2302 -11.2265 -11.2260 -11.1779 -11.1776 -11.0548 -11.0548
     2.7460   2.7463   4.6041   4.6063   4.7441   4.7468   4.8333   4.8349
     5.1024   5.1035   5.9701   5.9712   7.8279   7.8282   8.3385   8.3397
     8.7104   8.7109   9.4623   9.4625   9.7438   9.7438  10.8283  10.8286
    11.1218  11.1226  12.2408  12.2411

          k =-0.2500-0.2500 0.0000 (  6016 PWs)   bands (ev):

   -34.8128 -34.8128 -34.7822 -34.7822 -34.7747 -34.7747 -34.7672 -34.7672
   -15.6118 -15.6104 -15.5929 -15.5914 -15.5832 -15.5829 -15.4574 -15.4572
   -11.4947 -11.4937 -11.4688 -11.4682 -11.4368 -11.4362 -11.2660 -11.2656
   -11.2352 -11.2344 -11.2224 -11.2220 -11.1770 -11.1767 -11.0546 -11.0546
     2.7415   2.7418   4.6005   4.6025   4.7420   4.7447   4.8397   4.8410
     5.1031   5.1042   5.9771   5.9781   7.8267   7.8270   8.3408   8.3421
     8.7159   8.7163   9.4631   9.4633   9.7442   9.7442  10.8244  10.8247
    11.1200  11.1207  12.2414  12.2418

          k = 0.2500 0.0000 0.5000 (  6018 PWs)   bands (ev):

   -34.7998 -34.7998 -34.7909 -34.7909 -34.7778 -34.7778 -34.7683 -34.7683
   -15.6035 -15.6034 -15.5948 -15.5947 -15.5286 -15.5284 -15.5195 -15.5194
   -11.4697 -11.4696 -11.4473 -11.4471 -11.3419 -11.3414 -11.3320 -11.3314
   -11.2751 -11.2750 -11.2561 -11.2558 -11.1291 -11.1290 -11.1221 -11.1220
     3.6887   3.6889   3.7247   3.7249   4.8359   4.8362   4.8966   4.8971
     5.2542   5.2556   5.2808   5.2824   8.8163   8.8164   8.8688   8.8689
     8.9733   8.9734   9.0084   9.0085  10.2455  10.2457  10.2612  10.2614
    11.7573  11.7576  11.7950  11.7954

          k =-0.5000-0.2500 0.0000 (  6018 PWs)   bands (ev):

   -34.7976 -34.7976 -34.7946 -34.7946 -34.7744 -34.7744 -34.7702 -34.7702
   -15.6018 -15.6017 -15.5977 -15.5973 -15.5282 -15.5274 -15.5193 -15.5187
   -11.4732 -11.4728 -11.4569 -11.4565 -11.3447 -11.3447 -11.3168 -11.3167
   -11.2650 -11.2643 -11.2539 -11.2533 -11.1336 -11.1333 -11.1296 -11.1295
     3.4456   3.4458   3.9541   3.9548   4.6800   4.6811   5.0933   5.0951
     5.2815   5.2828   5.4067   5.4078   8.0146   8.0149   8.9306   8.9309
     8.9420   8.9421   9.6047   9.6047  10.1898  10.1898  10.2786  10.2786
    11.7079  11.7091  11.7306  11.7313

          k = 0.0000-0.5000 0.2500 (  6018 PWs)   bands (ev):

   -34.7997 -34.7997 -34.7910 -34.7910 -34.7776 -34.7776 -34.7684 -34.7684
   -15.6053 -15.6010 -15.5977 -15.5936 -15.5309 -15.5277 -15.5195 -15.5166
   -11.4743 -11.4721 -11.4563 -11.4532 -11.3451 -11.3435 -11.3194 -11.3186
   -11.2674 -11.2632 -11.2541 -11.2507 -11.1348 -11.1340 -11.1294 -11.1286
     3.4452   3.4453   4.0579   4.0589   4.6855   4.6856   4.9875   4.9889
     5.1495   5.1501   5.4058   5.4059   8.4395   8.4398   8.9085   8.9089
     8.9491   8.9497   9.3049   9.3050  10.1921  10.1922  10.3150  10.3151
    11.7659  11.7676  11.7892  11.7898

          k = 0.2500-0.5000 0.0000 (  6018 PWs)   bands (ev):

   -34.7997 -34.7997 -34.7911 -34.7911 -34.7776 -34.7776 -34.7684 -34.7684
   -15.6052 -15.6013 -15.5974 -15.5938 -15.5308 -15.5276 -15.5195 -15.5164
   -11.4745 -11.4716 -11.4585 -11.4549 -11.3452 -11.3443 -11.3169 -11.3161
   -11.2666 -11.2633 -11.2549 -11.2523 -11.1345 -11.1340 -11.1291 -11.1284
     3.4454   3.4455   3.9544   3.9550   4.6793   4.6817   5.0940   5.0943
     5.2805   5.2833   5.4075   5.4078   8.0144   8.0149   8.9306   8.9308
     8.9419   8.9424   9.6047   9.6048  10.1898  10.1899  10.2785  10.2787
    11.7085  11.7099  11.7293  11.7321

          k =-0.5000 0.0000 0.2500 (  6018 PWs)   bands (ev):

   -34.7976 -34.7976 -34.7946 -34.7946 -34.7744 -34.7744 -34.7702 -34.7702
   -15.6021 -15.6013 -15.5976 -15.5973 -15.5282 -15.5274 -15.5196 -15.5187
   -11.4736 -11.4728 -11.4551 -11.4546 -11.3442 -11.3439 -11.3204 -11.3178
   -11.2657 -11.2650 -11.2530 -11.2520 -11.1337 -11.1334 -11.1299 -11.1297
     3.4454   3.4455   4.0576   4.0588   4.6850   4.6861   4.9842   4.9918
     5.1453   5.1543   5.4055   5.4067   8.4398   8.4399   8.9083   8.9089
     8.9493   8.9495   9.3049   9.3051  10.1919  10.1921  10.3150  10.3151
    11.7650  11.7666  11.7891  11.7903

          k =-0.5000 0.0000 0.5000 (  6024 PWs)   bands (ev):

   -34.7929 -34.7929 -34.7847 -34.7847 -34.7844 -34.7844 -34.7748 -34.7748
   -15.5721 -15.5721 -15.5663 -15.5663 -15.5599 -15.5599 -15.5530 -15.5530
   -11.4338 -11.4338 -11.4295 -11.4295 -11.4026 -11.4026 -11.3978 -11.3978
   -11.1882 -11.1882 -11.1822 -11.1822 -11.1738 -11.1738 -11.1678 -11.1678
     4.0070   4.0070   4.0199   4.0199   4.5360   4.5360   4.5367   4.5367
     5.2582   5.2582   5.2742   5.2742   8.9010   8.9010   8.9012   8.9012
     9.6943   9.6943   9.6954   9.6954   9.7525   9.7525   9.7552   9.7552
    11.7090  11.7093  11.7111  11.7119

          k =-0.5000 0.5000 0.0000 (  6024 PWs)   bands (ev):

   -34.7929 -34.7929 -34.7850 -34.7850 -34.7841 -34.7841 -34.7747 -34.7747
   -15.5727 -15.5727 -15.5667 -15.5667 -15.5600 -15.5600 -15.5517 -15.5517
   -11.4349 -11.4349 -11.4271 -11.4271 -11.4204 -11.4204 -11.3826 -11.3826
   -11.1863 -11.1863 -11.1806 -11.1806 -11.1772 -11.1772 -11.1666 -11.1666
     3.9857   3.9857   4.0385   4.0385   4.0576   4.0576   5.2245   5.2245
     5.2877   5.2877   5.3017   5.3017   7.8510   7.8510   9.6501   9.6501
     9.6640   9.6640   9.6836   9.6836   9.7188   9.7188   9.8191   9.8191
    11.6799  11.6800  11.7081  11.7091

          k =-0.2500-0.2500 0.2500 (  6007 PWs)   bands (ev):

   -34.8071 -34.8071 -34.7827 -34.7827 -34.7774 -34.7774 -34.7696 -34.7696
   -15.5972 -15.5935 -15.5908 -15.5876 -15.5836 -15.5827 -15.4813 -15.4811
   -11.4834 -11.4815 -11.4677 -11.4655 -11.4491 -11.4484 -11.2622 -11.2616
   -11.2269 -11.2265 -11.2132 -11.2112 -11.2073 -11.2056 -11.0517 -11.0516
     3.0146   3.0152   4.3701   4.3727   4.5668   4.5692   4.8232   4.8245
     5.2890   5.2907   5.7309   5.7315   8.2418   8.2423   8.7767   8.7774
     8.9509   8.9513   9.4838   9.4840   9.6880   9.6881  10.8543  10.8548
    11.0594  11.0601  11.8639  11.8659

          k =-0.2500 0.2500-0.2500 (  6007 PWs)   bands (ev):

   -34.8072 -34.8072 -34.7824 -34.7824 -34.7774 -34.7774 -34.7699 -34.7699
   -15.5979 -15.5952 -15.5911 -15.5879 -15.5829 -15.5801 -15.4815 -15.4812
   -11.4859 -11.4841 -11.4683 -11.4660 -11.4457 -11.4452 -11.2615 -11.2609
   -11.2236 -11.2231 -11.2142 -11.2126 -11.2105 -11.2088 -11.0516 -11.0516
     3.0164   3.0170   4.3580   4.3606   4.5783   4.5805   4.8171   4.8185
     5.2985   5.3000   5.7265   5.7271   8.2408   8.2412   8.7792   8.7799
     8.9502   8.9506   9.4837   9.4839   9.6873   9.6873  10.8541  10.8547
    11.0592  11.0600  11.8642  11.8662

          k = 0.2500-0.2500-0.2500 (  6007 PWs)   bands (ev):

   -34.8072 -34.8072 -34.7824 -34.7824 -34.7774 -34.7774 -34.7699 -34.7699
   -15.5977 -15.5952 -15.5911 -15.5879 -15.5830 -15.5801 -15.4816 -15.4813
   -11.4854 -11.4841 -11.4679 -11.4658 -11.4456 -11.4452 -11.2617 -11.2610
   -11.2240 -11.2233 -11.2142 -11.2125 -11.2105 -11.2089 -11.0518 -11.0518
     3.0208   3.0210   4.3659   4.3663   4.5744   4.5753   4.8216   4.8228
     5.2906   5.2921   5.7187   5.7201   8.2414   8.2419   8.7760   8.7769
     8.9474   8.9481   9.4836   9.4839   9.6881   9.6882  10.8560  10.8561
    11.0612  11.0615  11.8638  11.8647

          k =-0.2500 0.2500 0.5000 (  6004 PWs)   bands (ev):

   -34.7972 -34.7972 -34.7881 -34.7881 -34.7803 -34.7803 -34.7711 -34.7711
   -15.5962 -15.5960 -15.5847 -15.5842 -15.5412 -15.5409 -15.5327 -15.5325
   -11.4902 -11.4900 -11.4577 -11.4572 -11.3971 -11.3964 -11.3764 -11.3756
   -11.2162 -11.2157 -11.2029 -11.2023 -11.1150 -11.1147 -11.1065 -11.1062
     3.5686   3.5692   3.9916   3.9943   4.2208   4.2237   4.8039   4.8060
     5.5206   5.5231   5.5317   5.5323   8.8352   8.8357   9.0355   9.0360
     9.2875   9.2877   9.4777   9.4779  10.3180  10.3186  10.3433  10.3439
    11.0776  11.0785  11.2634  11.2640

          k =-0.5000-0.2500 0.2500 (  6004 PWs)   bands (ev):

   -34.7954 -34.7954 -34.7917 -34.7917 -34.7773 -34.7773 -34.7722 -34.7722
   -15.5934 -15.5924 -15.5893 -15.5886 -15.5406 -15.5393 -15.5330 -15.5317
   -11.4853 -11.4843 -11.4727 -11.4717 -11.3936 -11.3929 -11.3717 -11.3699
   -11.2089 -11.2085 -11.2038 -11.2034 -11.1144 -11.1143 -11.1125 -11.1123
     3.5299   3.5306   3.8604   3.8610   4.4552   4.4559   4.7838   4.7843
     5.5314   5.5325   5.5524   5.5535   8.4264   8.4265   9.2419   9.2421
     9.3299   9.3299   9.5311   9.5312  10.3200  10.3205  10.3572  10.3573
    11.1081  11.1083  11.1969  11.1985

          k = 0.5000-0.2500-0.2500 (  6004 PWs)   bands (ev):

   -34.7954 -34.7954 -34.7917 -34.7917 -34.7773 -34.7773 -34.7722 -34.7722
   -15.5934 -15.5924 -15.5893 -15.5886 -15.5406 -15.5394 -15.5329 -15.5318
   -11.4849 -11.4847 -11.4726 -11.4717 -11.3935 -11.3930 -11.3717 -11.3700
   -11.2089 -11.2085 -11.2039 -11.2034 -11.1146 -11.1141 -11.1126 -11.1123
     3.5300   3.5301   3.8603   3.8615   4.4551   4.4563   4.7832   4.7849
     5.5289   5.5311   5.5544   5.5550   8.4263   8.4265   9.2418   9.2423
     9.3298   9.3298   9.5310   9.5313  10.3200  10.3200  10.3574  10.3574
    11.1086  11.1086  11.1980  11.1981

          k =-0.2500-0.5000 0.2500 (  6004 PWs)   bands (ev):

   -34.7970 -34.7970 -34.7885 -34.7885 -34.7803 -34.7803 -34.7710 -34.7710
   -15.5963 -15.5924 -15.5887 -15.5850 -15.5434 -15.5398 -15.5330 -15.5297
   -11.4858 -11.4835 -11.4736 -11.4704 -11.3947 -11.3918 -11.3723 -11.3697
   -11.2105 -11.2072 -11.2049 -11.2018 -11.1159 -11.1154 -11.1117 -11.1113
     3.5332   3.5339   3.8630   3.8634   4.4519   4.4530   4.7848   4.7863
     5.5277   5.5291   5.5490   5.5500   8.4266   8.4272   9.2411   9.2413
     9.3293   9.3296   9.5314   9.5316  10.3218  10.3222  10.3564  10.3567
    11.1085  11.1092  11.1973  11.1979

          k =-0.2500 0.5000-0.2500 (  6004 PWs)   bands (ev):

   -34.7970 -34.7970 -34.7885 -34.7885 -34.7803 -34.7803 -34.7710 -34.7710
   -15.5964 -15.5924 -15.5889 -15.5850 -15.5434 -15.5397 -15.5329 -15.5295
   -11.4861 -11.4838 -11.4739 -11.4707 -11.3948 -11.3919 -11.3720 -11.3693
   -11.2104 -11.2070 -11.2051 -11.2019 -11.1156 -11.1152 -11.1115 -11.1110
     3.5261   3.5269   3.8585   3.8588   4.4585   4.4595   4.7818   4.7832
     5.5311   5.5324   5.5590   5.5606   8.4255   8.4261   9.2426   9.2429
     9.3301   9.3305   9.5308   9.5310  10.3182  10.3185  10.3579  10.3582
    11.1081  11.1087  11.1978  11.1984

          k =-0.5000 0.2500 0.5000 (  6000 PWs)   bands (ev):

   -34.7928 -34.7928 -34.7846 -34.7846 -34.7844 -34.7844 -34.7747 -34.7747
   -15.5749 -15.5748 -15.5691 -15.5691 -15.5626 -15.5626 -15.5557 -15.5556
   -11.4749 -11.4742 -11.4710 -11.4705 -11.4414 -11.4410 -11.4371 -11.4364
   -11.1393 -11.1383 -11.1329 -11.1326 -11.1294 -11.1292 -11.1241 -11.1232
     3.7077   3.7084   3.7220   3.7226   4.3855   4.3856   4.3863   4.3863
     5.6955   5.6965   5.7104   5.7113   9.0825   9.0826   9.0857   9.0859
    10.0372  10.0380  10.0412  10.0413  10.1924  10.1926  10.1946  10.1947
    10.9923  10.9935  10.9938  10.9944

          k =-0.5000 0.5000 0.2500 (  6000 PWs)   bands (ev):

   -34.7928 -34.7928 -34.7849 -34.7849 -34.7842 -34.7842 -34.7747 -34.7747
   -15.5756 -15.5748 -15.5705 -15.5677 -15.5645 -15.5613 -15.5556 -15.5545
   -11.4754 -11.4740 -11.4712 -11.4709 -11.4496 -11.4485 -11.4307 -11.4276
   -11.1386 -11.1377 -11.1325 -11.1322 -11.1301 -11.1288 -11.1246 -11.1234
     3.7129   3.7145   3.7282   3.7298   4.0379   4.0394   4.8058   4.8071
     5.7043   5.7047   5.7163   5.7167   8.4475   8.4476   9.5993   9.5995
    10.0396  10.0398  10.0591  10.0593  10.0953  10.0954  10.2566  10.2567
    10.9241  10.9247  10.9277  10.9285

     the Fermi energy is     9.3876 ev

!    total energy              =   -2245.89069199 Ry
     Harris-Foulkes estimate   =   -2245.89069265 Ry
     estimated scf accuracy    <       0.00000077 Ry

     total all-electron energy =    -90250.234077 Ry

     The total energy is the sum of the following terms:

     one-electron contribution =     -52.56989149 Ry
     hartree contribution      =      45.25951021 Ry
     xc contribution           =    -255.66601846 Ry
     ewald contribution        =    -234.85038508 Ry
     one-center paw contrib.   =   -1748.06036230 Ry
     smearing contrib. (-TS)   =      -0.00354486 Ry

     convergence has been achieved in   7 iterations

     Forces acting on atoms (cartesian axes, Ry/au):

     atom    1 type  1   force =     0.01588642    0.01724407    0.00082503
     atom    2 type  1   force =     0.01674603   -0.01552479    0.00080982
     atom    3 type  1   force =    -0.01630858    0.01674340    0.00044682
     atom    4 type  1   force =    -0.01633866   -0.01597420    0.00034461
     atom    5 type  2   force =     0.00015747   -0.00280209   -0.00273493
     atom    6 type  2   force =    -0.00000282   -0.00002408    0.00021577
     atom    7 type  2   force =    -0.00000205   -0.00005519   -0.00007370
     atom    8 type  2   force =    -0.00000489    0.00018880   -0.00000201
     atom    9 type  2   force =    -0.00006325   -0.00002009   -0.00005547
     atom   10 type  2   force =    -0.00006967    0.00022416    0.00022406

     Total force =     0.046442     Total SCF correction =     0.001865


     Computing stress (Cartesian axis) and pressure

     Message from routine stres:
     noncollinear stress + GGA not implemented

     BFGS Geometry Optimization

     number of scf cycles    =   1
     number of bfgs steps    =   0

     enthalpy new            =   -2245.8906919860 Ry

     new trust radius        =       0.0234609649 bohr
     new conv_thr            =       0.0000010000 Ry

     new unit-cell volume =   1006.37882 a.u.^3 (   149.12995 Ang^3 )
     density =      7.07116 g/cm^3

CELL_PARAMETERS (angstrom)
   5.303000000   0.000000000   0.000000000
   0.000000000   5.303000000   0.000000000
   0.000000000   0.000000000   5.303000000

ATOMIC_POSITIONS (crystal)
Gd       0.001585278   0.001720756   0.000082329
Gd       0.001671058   0.498450808   0.500080811
Gd       0.498372595   0.001670795   0.500044587
Gd       0.498369594   0.498405963   0.000034388
H        0.250015714   0.753620385   0.753627086
H        0.249999719   0.750097598   0.250021531
H        0.249999795   0.249994493   0.249992646
H        0.249999512   0.250018840   0.750099799
H        0.750093688   0.249997995   0.750094464
H        0.750093047   0.250022369   0.250022358



     Writing output data file 2304.save
     NEW-OLD atomic charge density approx. for the potential

     Check: negative/imaginary core charge=   -0.000002    0.000000

     total cpu time spent up to now is       52.8 secs

     per-process dynamical memory:   129.3 Mb

     Self-consistent Calculation

     iteration #  1     ecut=    50.00 Ry     beta=0.70
     Davidson diagonalization with overlap
     c_bands:  3 eigenvalues not converged
     c_bands:  2 eigenvalues not converged
     ethr =  1.00E-06,  avg # of iterations =  6.7

     total cpu time spent up to now is       63.0 secs

     total energy              =   -2245.89244975 Ry
     Harris-Foulkes estimate   =   -2245.89464646 Ry
     estimated scf accuracy    <       0.00035863 Ry

     iteration #  2     ecut=    50.00 Ry     beta=0.70
     Davidson diagonalization with overlap
     ethr =  7.17E-07,  avg # of iterations =  3.8

     total cpu time spent up to now is       70.2 secs

     total energy              =   -2245.89249462 Ry
     Harris-Foulkes estimate   =   -2245.89276224 Ry
     estimated scf accuracy    <       0.00060498 Ry

     iteration #  3     ecut=    50.00 Ry     beta=0.70
     Davidson diagonalization with overlap
     ethr =  7.17E-07,  avg # of iterations =  2.3

     total cpu time spent up to now is       75.8 secs

     total energy              =   -2245.89259820 Ry
     Harris-Foulkes estimate   =   -2245.89260582 Ry
     estimated scf accuracy    <       0.00000134 Ry

     iteration #  4     ecut=    50.00 Ry     beta=0.70
     Davidson diagonalization with overlap
     ethr =  2.68E-09,  avg # of iterations =  3.9

     total cpu time spent up to now is       83.1 secs

     End of self-consistent calculation

          k = 0.0000 0.0000 0.0000 (  6031 PWs)   bands (ev):

   -34.8277 -34.8277 -34.7756 -34.7756 -34.7696 -34.7696 -34.7618 -34.7618
   -15.6228 -15.6228 -15.6158 -15.6158 -15.6070 -15.6070 -15.3968 -15.3968
   -11.5453 -11.5453 -11.5335 -11.5335 -11.5022 -11.5022 -11.2421 -11.2421
   -11.2363 -11.2363 -11.2274 -11.2274 -11.0174 -11.0174 -11.0017 -11.0017
     1.9747   1.9747   4.2996   4.2996   4.6329   4.6329   4.9281   4.9281
     5.9086   5.9086   6.7591   6.7591   7.5340   7.5340   7.5366   7.5366
     7.5385   7.5385   9.6511   9.6511  10.5620  10.5620  10.5695  10.5695
    10.7313  10.7313  11.7789  11.7789

          k = 0.0000 0.0000 0.2500 (  6023 PWs)   bands (ev):

   -34.8195 -34.8195 -34.7794 -34.7794 -34.7729 -34.7729 -34.7629 -34.7629
   -15.6206 -15.6198 -15.6089 -15.6085 -15.5843 -15.5833 -15.4295 -15.4293
   -11.5170 -11.5164 -11.4796 -11.4793 -11.4650 -11.4636 -11.2798 -11.2797
   -11.2694 -11.2690 -11.1952 -11.1950 -11.1009 -11.1009 -11.0354 -11.0353
     2.4032   2.4033   4.5114   4.5121   4.6423   4.6426   4.8199   4.8201
     5.6446   5.6464   5.8892   5.8894   7.9546   7.9550   7.9578   7.9587
     8.3376   8.3377   9.3603   9.3605   9.9941   9.9943  10.8333  10.8334
    10.9708  10.9715  12.2252  12.2253

          k = 0.0000 0.0000-0.5000 (  5942 PWs)   bands (ev):

   -34.8038 -34.8038 -34.7938 -34.7938 -34.7737 -34.7737 -34.7633 -34.7633
   -15.6179 -15.6179 -15.6091 -15.6091 -15.5120 -15.5120 -15.5028 -15.5028
   -11.4627 -11.4627 -11.4555 -11.4555 -11.3304 -11.3304 -11.3231 -11.3231
   -11.2895 -11.2895 -11.2824 -11.2824 -11.1202 -11.1202 -11.1114 -11.1114
     3.5056   3.5056   3.5201   3.5201   5.0407   5.0407   5.0421   5.0421
     5.2683   5.2683   5.2789   5.2789   8.5849   8.5849   8.5862   8.5862
     8.9111   8.9111   8.9127   8.9127  10.5800  10.5800  10.5892  10.5892
    11.3781  11.3781  11.3820  11.3820

          k = 0.0000 0.2500 0.2500 (  6016 PWs)   bands (ev):

   -34.8126 -34.8126 -34.7798 -34.7798 -34.7767 -34.7767 -34.7655 -34.7655
   -15.6127 -15.6112 -15.5908 -15.5884 -15.5867 -15.5847 -15.4574 -15.4572
   -11.4955 -11.4942 -11.4611 -11.4587 -11.4470 -11.4466 -11.2770 -11.2758
   -11.2322 -11.2321 -11.2194 -11.2189 -11.1790 -11.1788 -11.0517 -11.0516
     2.7542   2.7544   4.6086   4.6092   4.6997   4.7004   4.7737   4.7749
     5.2150   5.2160   5.7156   5.7159   8.2682   8.2689   8.3386   8.3390
     8.5178   8.5185   9.4182   9.4185   9.7675   9.7675  10.8184  10.8184
    11.1193  11.1193  12.2253  12.2254

          k = 0.0000 0.2500-0.5000 (  6018 PWs)   bands (ev):

   -34.7998 -34.7998 -34.7899 -34.7899 -34.7777 -34.7777 -34.7672 -34.7672
   -15.6044 -15.6042 -15.5949 -15.5945 -15.5291 -15.5288 -15.5192 -15.5190
   -11.4703 -11.4702 -11.4510 -11.4507 -11.3422 -11.3415 -11.3365 -11.3345
   -11.2747 -11.2736 -11.2563 -11.2540 -11.1288 -11.1283 -11.1225 -11.1220
     3.6827   3.6829   3.7160   3.7163   4.8344   4.8347   4.8905   4.8937
     5.2253   5.2271   5.2441   5.2453   8.8156   8.8165   8.8675   8.8696
     8.9823   8.9841   9.0172   9.0175  10.2520  10.2521  10.2661  10.2664
    11.7243  11.7260  11.7680  11.7689

          k = 0.0000-0.5000-0.5000 (  6024 PWs)   bands (ev):

   -34.7930 -34.7930 -34.7844 -34.7844 -34.7834 -34.7834 -34.7735 -34.7735
   -15.5739 -15.5739 -15.5665 -15.5665 -15.5599 -15.5599 -15.5520 -15.5520
   -11.4336 -11.4336 -11.4332 -11.4332 -11.4028 -11.4028 -11.4014 -11.4014
   -11.1856 -11.1856 -11.1850 -11.1850 -11.1709 -11.1709 -11.1695 -11.1695
     3.9992   3.9992   3.9997   3.9997   4.5241   4.5241   4.5487   4.5487
     5.2371   5.2371   5.2376   5.2376   8.9142   8.9142   8.9163   8.9163
     9.6997   9.6997   9.7004   9.7004   9.7531   9.7531   9.7535   9.7535
    11.7018  11.7022  11.7035  11.7078

          k = 0.2500 0.2500 0.2500 (  6007 PWs)   bands (ev):

   -34.8068 -34.8068 -34.7824 -34.7824 -34.7767 -34.7767 -34.7685 -34.7685
   -15.5982 -15.5941 -15.5912 -15.5878 -15.5839 -15.5828 -15.4810 -15.4807
   -11.4866 -11.4850 -11.4668 -11.4646 -11.4525 -11.4512 -11.2655 -11.2647
   -11.2276 -11.2261 -11.2143 -11.2114 -11.2044 -11.2026 -11.0514 -11.0514
     3.0052   3.0053   4.3660   4.3664   4.5523   4.5532   4.7807   4.7818
     5.2983   5.2996   5.7148   5.7161   8.2410   8.2415   8.7771   8.7778
     8.9511   8.9517   9.4924   9.4926   9.7140   9.7140  10.8490  10.8491
    11.0542  11.0544  11.8648  11.8654

          k = 0.2500 0.2500-0.5000 (  6004 PWs)   bands (ev):

   -34.7969 -34.7969 -34.7874 -34.7874 -34.7805 -34.7805 -34.7696 -34.7696
   -15.5952 -15.5949 -15.5866 -15.5862 -15.5431 -15.5428 -15.5307 -15.5306
   -11.4877 -11.4873 -11.4645 -11.4642 -11.3976 -11.3971 -11.3791 -11.3782
   -11.2183 -11.2177 -11.2005 -11.1998 -11.1116 -11.1113 -11.1091 -11.1087
     3.5517   3.5523   3.9780   3.9800   4.2301   4.2324   4.7578   4.7594
     5.5178   5.5189   5.5265   5.5285   8.8517   8.8522   9.0325   9.0329
     9.2870   9.2872   9.4869   9.4870  10.3216  10.3221  10.3411  10.3416
    11.0769  11.0777  11.2590  11.2594

          k = 0.2500-0.5000-0.5000 (  6000 PWs)   bands (ev):

   -34.7929 -34.7929 -34.7844 -34.7844 -34.7834 -34.7834 -34.7735 -34.7735
   -15.5761 -15.5760 -15.5691 -15.5691 -15.5629 -15.5628 -15.5552 -15.5551
   -11.4749 -11.4748 -11.4713 -11.4710 -11.4441 -11.4437 -11.4400 -11.4395
   -11.1382 -11.1379 -11.1334 -11.1332 -11.1290 -11.1286 -11.1245 -11.1243
     3.7086   3.7096   3.7202   3.7212   4.3475   4.3490   4.3580   4.3595
     5.6922   5.6930   5.7038   5.7047   9.0935   9.0938   9.0972   9.0975
    10.0339  10.0341  10.0404  10.0406  10.1940  10.1944  10.1961  10.1964
    10.9830  10.9833  10.9907  10.9912

          k =-0.5000-0.5000-0.5000 (  6008 PWs)   bands (ev):

   -34.7928 -34.7928 -34.7844 -34.7844 -34.7833 -34.7833 -34.7736 -34.7736
   -15.5782 -15.5782 -15.5719 -15.5719 -15.5657 -15.5657 -15.5584 -15.5584
   -11.5054 -11.5054 -11.5021 -11.5021 -11.4739 -11.4739 -11.4699 -11.4699
   -11.0987 -11.0987 -11.0955 -11.0955 -11.0917 -11.0917 -11.0890 -11.0890
     3.4911   3.4911   3.5045   3.5045   4.2411   4.2411   4.2413   4.2413
     6.0243   6.0243   6.0375   6.0375   9.3058   9.3058   9.3062   9.3062
    10.4971  10.4971  10.4978  10.4978  10.5866  10.5866  10.5883  10.5883
    10.7013  10.7013  10.7026  10.7026

          k = 0.2500 0.0000 0.0000 (  6023 PWs)   bands (ev):

   -34.8194 -34.8194 -34.7812 -34.7812 -34.7695 -34.7695 -34.7645 -34.7645
   -15.6168 -15.6156 -15.6150 -15.6146 -15.5825 -15.5815 -15.4292 -15.4290
   -11.5115 -11.5102 -11.5045 -11.5041 -11.4500 -11.4487 -11.2722 -11.2719
   -11.2621 -11.2615 -11.2066 -11.2063 -11.0902 -11.0900 -11.0459 -11.0459
     2.3889   2.3891   4.5511   4.5519   4.6008   4.6011   5.0003   5.0005
     5.2526   5.2529   6.2595   6.2608   7.9429   7.9460   7.9513   7.9524
     8.0116   8.0157   9.6162   9.6163   9.9180   9.9181  10.8387  10.8388
    10.9766  10.9779  12.2372  12.2374

          k = 0.0000 0.2500 0.0000 (  6023 PWs)   bands (ev):

   -34.8195 -34.8195 -34.7798 -34.7798 -34.7721 -34.7721 -34.7631 -34.7631
   -15.6192 -15.6188 -15.6118 -15.6112 -15.5826 -15.5824 -15.4291 -15.4290
   -11.5115 -11.5112 -11.5040 -11.5037 -11.4494 -11.4493 -11.2726 -11.2722
   -11.2613 -11.2611 -11.2066 -11.2066 -11.0902 -11.0900 -11.0459 -11.0458
     2.3888   2.3890   4.5506   4.5514   4.6013   4.6015   5.0002   5.0006
     5.2527   5.2528   6.2597   6.2607   7.9430   7.9442   7.9513   7.9528
     8.0141   8.0144   9.6163   9.6164   9.9180   9.9180  10.8388  10.8389
    10.9769  10.9777  12.2373  12.2374

          k =-0.5000 0.0000 0.0000 (  5942 PWs)   bands (ev):

   -34.8019 -34.8019 -34.7973 -34.7973 -34.7695 -34.7695 -34.7659 -34.7659
   -15.6145 -15.6145 -15.6138 -15.6138 -15.5146 -15.5146 -15.4989 -15.4989
   -11.4725 -11.4725 -11.4675 -11.4675 -11.3156 -11.3156 -11.3122 -11.3122
   -11.3009 -11.3009 -11.2523 -11.2523 -11.1343 -11.1343 -11.1201 -11.1201
     3.2073   3.2073   3.8724   3.8724   4.9846   4.9846   4.9942   4.9942
     5.2850   5.2850   5.4175   5.4175   8.2186   8.2186   8.5805   8.5805
     8.5841   8.5841   9.5528   9.5528  10.3607  10.3607  10.7445  10.7445
    11.3848  11.3848  11.4596  11.4596

          k = 0.0000-0.5000 0.0000 (  5942 PWs)   bands (ev):

   -34.8038 -34.8038 -34.7941 -34.7941 -34.7730 -34.7730 -34.7637 -34.7637
   -15.6178 -15.6178 -15.6102 -15.6102 -15.5157 -15.5157 -15.4981 -15.4981
   -11.4739 -11.4739 -11.4661 -11.4661 -11.3168 -11.3168 -11.3107 -11.3107
   -11.3013 -11.3013 -11.2522 -11.2522 -11.1352 -11.1352 -11.1192 -11.1192
     3.2070   3.2070   3.8728   3.8728   4.9846   4.9846   4.9941   4.9941
     5.2847   5.2847   5.4179   5.4179   8.2184   8.2184   8.5804   8.5804
     8.5843   8.5843   9.5528   9.5528  10.3610  10.3610  10.7443  10.7443
    11.3848  11.3848  11.4599  11.4599

          k = 0.0000-0.2500 0.2500 (  6016 PWs)   bands (ev):

   -34.8126 -34.8126 -34.7798 -34.7798 -34.7767 -34.7767 -34.7655 -34.7655
   -15.6128 -15.6112 -15.5908 -15.5885 -15.5866 -15.5847 -15.4574 -15.4572
   -11.4956 -11.4941 -11.4609 -11.4589 -11.4469 -11.4466 -11.2768 -11.2762
   -11.2321 -11.2320 -11.2194 -11.2188 -11.1790 -11.1789 -11.0517 -11.0516
     2.7541   2.7545   4.6081   4.6093   4.6973   4.7006   4.7749   4.7761
     5.2155   5.2158   5.7157   5.7158   8.2680   8.2685   8.3384   8.3388
     8.5182   8.5186   9.4184   9.4184   9.7675   9.7675  10.8184  10.8185
    11.1184  11.1197  12.2252  12.2253

          k = 0.2500 0.0000-0.2500 (  6016 PWs)   bands (ev):

   -34.8125 -34.8125 -34.7815 -34.7815 -34.7744 -34.7744 -34.7661 -34.7661
   -15.6118 -15.6113 -15.5935 -15.5900 -15.5857 -15.5822 -15.4574 -15.4572
   -11.4952 -11.4943 -11.4605 -11.4595 -11.4476 -11.4455 -11.2770 -11.2764
   -11.2332 -11.2312 -11.2199 -11.2178 -11.1793 -11.1787 -11.0518 -11.0517
     2.7558   2.7560   4.6102   4.6125   4.6994   4.7015   4.7742   4.7753
     5.2121   5.2135   5.7115   5.7124   8.2672   8.2693   8.3379   8.3409
     8.5143   8.5150   9.4169   9.4173   9.7679   9.7680  10.8206  10.8207
    11.1200  11.1207  12.2249  12.2250

          k =-0.2500 0.0000-0.2500 (  6016 PWs)   bands (ev):

   -34.8125 -34.8125 -34.7815 -34.7815 -34.7744 -34.7744 -34.7661 -34.7661
   -15.6118 -15.6112 -15.5936 -15.5900 -15.5858 -15.5822 -15.4574 -15.4572
   -11.4954 -11.4944 -11.4607 -11.4597 -11.4477 -11.4457 -11.2767 -11.2760
   -11.2330 -11.2312 -11.2199 -11.2180 -11.1794 -11.1787 -11.0515 -11.0514
     2.7526   2.7529   4.6052   4.6074   4.6985   4.7005   4.7732   4.7742
     5.2178   5.2192   5.7193   5.7203   8.2677   8.2699   8.3365   8.3395
     8.5214   8.5221   9.4194   9.4198   9.7670   9.7671  10.8159  10.8161
    11.1178  11.1185  12.2255  12.2258

          k = 0.2500-0.2500 0.0000 (  6016 PWs)   bands (ev):

   -34.8126 -34.8126 -34.7817 -34.7817 -34.7740 -34.7740 -34.7664 -34.7664
   -15.6122 -15.6109 -15.5945 -15.5944 -15.5821 -15.5806 -15.4573 -15.4570
   -11.4991 -11.4977 -11.4696 -11.4687 -11.4368 -11.4360 -11.2669 -11.2658
   -11.2306 -11.2298 -11.2289 -11.2278 -11.1763 -11.1760 -11.0549 -11.0548
     2.7395   2.7397   4.5854   4.5872   4.7452   4.7475   4.8341   4.8355
     5.0542   5.0552   5.9560   5.9570   7.8255   7.8258   8.3371   8.3382
     8.7080   8.7084   9.4723   9.4725   9.7715   9.7715  10.8228  10.8231
    11.1169  11.1176  12.2425  12.2427

          k =-0.2500-0.2500 0.0000 (  6016 PWs)   bands (ev):

   -34.8125 -34.8125 -34.7820 -34.7820 -34.7737 -34.7737 -34.7663 -34.7663
   -15.6125 -15.6108 -15.5933 -15.5916 -15.5835 -15.5833 -15.4571 -15.4568
   -11.4986 -11.4974 -11.4668 -11.4661 -11.4407 -11.4398 -11.2671 -11.2661
   -11.2346 -11.2337 -11.2253 -11.2244 -11.1750 -11.1748 -11.0546 -11.0546
     2.7355   2.7357   4.5820   4.5837   4.7433   4.7458   4.8397   4.8410
     5.0549   5.0559   5.9623   5.9633   7.8242   7.8245   8.3392   8.3403
     8.7132   8.7136   9.4731   9.4733   9.7721   9.7721  10.8192  10.8194
    11.1154  11.1160  12.2427  12.2430

          k = 0.2500 0.0000 0.5000 (  6018 PWs)   bands (ev):

   -34.7998 -34.7998 -34.7899 -34.7899 -34.7777 -34.7777 -34.7672 -34.7672
   -15.6044 -15.6042 -15.5948 -15.5947 -15.5290 -15.5289 -15.5191 -15.5190
   -11.4703 -11.4702 -11.4510 -11.4508 -11.3423 -11.3412 -11.3360 -11.3347
   -11.2744 -11.2743 -11.2555 -11.2551 -11.1286 -11.1285 -11.1222 -11.1222
     3.6823   3.6825   3.7165   3.7167   4.8343   4.8347   4.8914   4.8918
     5.2229   5.2244   5.2469   5.2486   8.8160   8.8161   8.8686   8.8687
     8.9829   8.9830   9.0175   9.0175  10.2510  10.2512  10.2670  10.2672
    11.7250  11.7253  11.7685  11.7687

          k =-0.5000-0.2500 0.0000 (  6018 PWs)   bands (ev):

   -34.7981 -34.7981 -34.7935 -34.7935 -34.7737 -34.7737 -34.7692 -34.7692
   -15.6028 -15.6025 -15.5978 -15.5973 -15.5306 -15.5300 -15.5166 -15.5162
   -11.4783 -11.4779 -11.4554 -11.4551 -11.3494 -11.3493 -11.3152 -11.3151
   -11.2680 -11.2672 -11.2508 -11.2502 -11.1354 -11.1351 -11.1277 -11.1276
     3.4307   3.4308   3.9597   3.9603   4.6659   4.6670   5.0611   5.0626
     5.2842   5.2855   5.3751   5.3760   8.0174   8.0177   8.9269   8.9272
     8.9394   8.9394   9.6340   9.6340  10.2140  10.2140  10.2513  10.2514
    11.7024  11.7035  11.7268  11.7274

          k = 0.0000-0.5000 0.2500 (  6018 PWs)   bands (ev):

   -34.7997 -34.7997 -34.7904 -34.7904 -34.7769 -34.7769 -34.7675 -34.7675
   -15.6060 -15.6016 -15.5979 -15.5937 -15.5329 -15.5304 -15.5169 -15.5147
   -11.4790 -11.4764 -11.4553 -11.4517 -11.3500 -11.3484 -11.3191 -11.3184
   -11.2706 -11.2662 -11.2496 -11.2464 -11.1366 -11.1356 -11.1277 -11.1266
     3.4303   3.4303   4.0632   4.0641   4.6662   4.6663   4.9808   4.9822
     5.1364   5.1371   5.3674   5.3675   8.4415   8.4418   8.9044   8.9047
     8.9456   8.9461   9.3365   9.3366  10.2191  10.2192  10.3036  10.3036
    11.7413  11.7416  11.7667  11.7686

          k = 0.2500-0.5000 0.0000 (  6018 PWs)   bands (ev):

   -34.7998 -34.7998 -34.7904 -34.7904 -34.7768 -34.7768 -34.7675 -34.7675
   -15.6061 -15.6020 -15.5977 -15.5938 -15.5328 -15.5302 -15.5168 -15.5144
   -11.4796 -11.4767 -11.4571 -11.4534 -11.3498 -11.3490 -11.3152 -11.3145
   -11.2699 -11.2657 -11.2522 -11.2490 -11.1361 -11.1354 -11.1275 -11.1267
     3.4304   3.4305   3.9601   3.9606   4.6653   4.6675   5.0615   5.0620
     5.2833   5.2860   5.3756   5.3762   8.0173   8.0178   8.9269   8.9271
     8.9392   8.9397   9.6340   9.6340  10.2139  10.2143  10.2511  10.2515
    11.7031  11.7043  11.7249  11.7263

          k =-0.5000 0.0000 0.2500 (  6018 PWs)   bands (ev):

   -34.7981 -34.7981 -34.7935 -34.7935 -34.7737 -34.7737 -34.7692 -34.7692
   -15.6028 -15.6020 -15.5978 -15.5973 -15.5308 -15.5302 -15.5169 -15.5162
   -11.4780 -11.4773 -11.4537 -11.4534 -11.3493 -11.3488 -11.3202 -11.3175
   -11.2689 -11.2680 -11.2486 -11.2475 -11.1357 -11.1355 -11.1276 -11.1275
     3.4305   3.4306   4.0628   4.0639   4.6658   4.6667   4.9776   4.9849
     5.1323   5.1410   5.3672   5.3684   8.4417   8.4418   8.9042   8.9047
     8.9458   8.9460   9.3366   9.3366  10.2188  10.2190  10.3037  10.3038
    11.7407  11.7414  11.7665  11.7691

          k =-0.5000 0.0000 0.5000 (  6024 PWs)   bands (ev):

   -34.7930 -34.7930 -34.7844 -34.7844 -34.7834 -34.7834 -34.7735 -34.7735
   -15.5736 -15.5736 -15.5669 -15.5669 -15.5597 -15.5597 -15.5520 -15.5520
   -11.4353 -11.4353 -11.4318 -11.4318 -11.4038 -11.4038 -11.3999 -11.3999
   -11.1882 -11.1882 -11.1835 -11.1835 -11.1720 -11.1720 -11.1674 -11.1674
     3.9938   3.9938   4.0052   4.0052   4.5358   4.5358   4.5361   4.5361
     5.2300   5.2300   5.2455   5.2455   8.9152   8.9152   8.9155   8.9155
     9.6994   9.6994   9.7004   9.7004   9.7520   9.7520   9.7547   9.7547
    11.7020  11.7031  11.7044  11.7065

          k =-0.5000 0.5000 0.0000 (  6024 PWs)   bands (ev):

   -34.7931 -34.7931 -34.7852 -34.7852 -34.7827 -34.7827 -34.7735 -34.7735
   -15.5752 -15.5752 -15.5680 -15.5680 -15.5579 -15.5579 -15.5509 -15.5509
   -11.4385 -11.4385 -11.4338 -11.4338 -11.4167 -11.4167 -11.3820 -11.3820
   -11.1856 -11.1856 -11.1849 -11.1849 -11.1764 -11.1764 -11.1646 -11.1646
     3.9590   3.9590   4.0419   4.0419   4.0587   4.0587   5.1615   5.1615
     5.2899   5.2899   5.3031   5.3031   7.8567   7.8567   9.6577   9.6577
     9.6629   9.6629   9.6711   9.6711   9.7369   9.7369   9.8188   9.8188
    11.6935  11.6937  11.6960  11.6961

          k =-0.2500-0.2500 0.2500 (  6007 PWs)   bands (ev):

   -34.8068 -34.8068 -34.7824 -34.7824 -34.7767 -34.7767 -34.7685 -34.7685
   -15.5980 -15.5941 -15.5912 -15.5878 -15.5839 -15.5828 -15.4811 -15.4808
   -11.4868 -11.4845 -11.4667 -11.4641 -11.4525 -11.4511 -11.2656 -11.2648
   -11.2277 -11.2267 -11.2143 -11.2113 -11.2044 -11.2024 -11.0516 -11.0516
     3.0089   3.0094   4.3708   4.3734   4.5476   4.5499   4.7846   4.7857
     5.2915   5.2929   5.7081   5.7087   8.2416   8.2420   8.7740   8.7745
     8.9489   8.9492   9.4927   9.4929   9.7147   9.7148  10.8503  10.8509
    11.0555  11.0563  11.8628  11.8646

          k =-0.2500 0.2500-0.2500 (  6007 PWs)   bands (ev):

   -34.8069 -34.8069 -34.7821 -34.7821 -34.7767 -34.7767 -34.7688 -34.7688
   -15.5986 -15.5958 -15.5917 -15.5881 -15.5832 -15.5800 -15.4813 -15.4810
   -11.4893 -11.4872 -11.4673 -11.4647 -11.4489 -11.4480 -11.2649 -11.2641
   -11.2251 -11.2231 -11.2141 -11.2115 -11.2084 -11.2061 -11.0517 -11.0516
     3.0104   3.0109   4.3598   4.3624   4.5577   4.5600   4.7795   4.7806
     5.3003   5.3016   5.7041   5.7047   8.2407   8.2412   8.7763   8.7769
     8.9478   8.9482   9.4925   9.4927   9.7138   9.7138  10.8500  10.8506
    11.0551  11.0559  11.8635  11.8654

          k = 0.2500-0.2500-0.2500 (  6007 PWs)   bands (ev):

   -34.8069 -34.8069 -34.7821 -34.7821 -34.7767 -34.7767 -34.7688 -34.7688
   -15.5985 -15.5958 -15.5916 -15.5881 -15.5832 -15.5800 -15.4813 -15.4810
   -11.4889 -11.4873 -11.4669 -11.4646 -11.4489 -11.4479 -11.2651 -11.2642
   -11.2254 -11.2235 -11.2140 -11.2116 -11.2083 -11.2061 -11.0519 -11.0518
     3.0144   3.0145   4.3670   4.3675   4.5545   4.5554   4.7834   4.7846
     5.2929   5.2942   5.6968   5.6981   8.2414   8.2418   8.7733   8.7740
     8.9453   8.9459   9.4926   9.4929   9.7146   9.7146  10.8519  10.8520
    11.0571  11.0574  11.8631  11.8638

          k =-0.2500 0.2500 0.5000 (  6004 PWs)   bands (ev):

   -34.7972 -34.7972 -34.7871 -34.7871 -34.7801 -34.7801 -34.7699 -34.7699
   -15.5969 -15.5967 -15.5847 -15.5843 -15.5416 -15.5413 -15.5325 -15.5322
   -11.4909 -11.4905 -11.4609 -11.4605 -11.3971 -11.3964 -11.3798 -11.3785
   -11.2151 -11.2146 -11.2037 -11.2027 -11.1144 -11.1139 -11.1072 -11.1068
     3.5664   3.5670   3.9722   3.9746   4.2232   4.2258   4.7623   4.7641
     5.5069   5.5078   5.5265   5.5281   8.8502   8.8507   9.0325   9.0329
     9.2860   9.2862   9.4874   9.4875  10.3191  10.3196  10.3453  10.3458
    11.0768  11.0777  11.2592  11.2597

          k =-0.5000-0.2500 0.2500 (  6004 PWs)   bands (ev):

   -34.7957 -34.7957 -34.7908 -34.7908 -34.7766 -34.7766 -34.7712 -34.7712
   -15.5940 -15.5929 -15.5897 -15.5887 -15.5426 -15.5415 -15.5309 -15.5299
   -11.4893 -11.4885 -11.4711 -11.4703 -11.3969 -11.3966 -11.3721 -11.3703
   -11.2115 -11.2111 -11.2010 -11.2006 -11.1160 -11.1160 -11.1109 -11.1108
     3.5189   3.5195   3.8640   3.8644   4.4376   4.4382   4.7444   4.7449
     5.5297   5.5305   5.5398   5.5405   8.4309   8.4310   9.2383   9.2385
     9.3246   9.3246   9.5562   9.5562  10.3325  10.3326  10.3442  10.3450
    11.1008  11.1010  11.1989  11.2003

          k = 0.5000-0.2500-0.2500 (  6004 PWs)   bands (ev):

   -34.7957 -34.7957 -34.7908 -34.7908 -34.7766 -34.7766 -34.7712 -34.7712
   -15.5940 -15.5929 -15.5897 -15.5887 -15.5425 -15.5416 -15.5308 -15.5300
   -11.4890 -11.4888 -11.4711 -11.4704 -11.3968 -11.3967 -11.3721 -11.3704
   -11.2115 -11.2111 -11.2010 -11.2006 -11.1162 -11.1158 -11.1109 -11.1108
     3.5190   3.5191   3.8638   3.8648   4.4375   4.4386   4.7439   4.7455
     5.5264   5.5280   5.5424   5.5434   8.4308   8.4310   9.2382   9.2387
     9.3245   9.3246   9.5561   9.5563  10.3319  10.3320  10.3451  10.3452
    11.1013  11.1013  11.1998  11.1999

          k =-0.2500-0.5000 0.2500 (  6004 PWs)   bands (ev):

   -34.7970 -34.7970 -34.7879 -34.7879 -34.7794 -34.7794 -34.7700 -34.7700
   -15.5970 -15.5928 -15.5892 -15.5852 -15.5448 -15.5419 -15.5309 -15.5283
   -11.4900 -11.4875 -11.4722 -11.4688 -11.3981 -11.3955 -11.3726 -11.3701
   -11.2133 -11.2095 -11.2024 -11.1989 -11.1170 -11.1165 -11.1106 -11.1101
     3.5218   3.5225   3.8664   3.8668   4.4347   4.4358   4.7452   4.7467
     5.5237   5.5258   5.5384   5.5394   8.4312   8.4317   9.2376   9.2378
     9.3240   9.3243   9.5563   9.5564  10.3310  10.3324  10.3459  10.3472
    11.1012  11.1017  11.1994  11.1999

          k =-0.2500 0.5000-0.2500 (  6004 PWs)   bands (ev):

   -34.7970 -34.7970 -34.7879 -34.7879 -34.7794 -34.7794 -34.7700 -34.7700
   -15.5971 -15.5927 -15.5894 -15.5852 -15.5448 -15.5419 -15.5309 -15.5282
   -11.4902 -11.4878 -11.4725 -11.4691 -11.3982 -11.3955 -11.3723 -11.3697
   -11.2131 -11.2092 -11.2026 -11.1991 -11.1168 -11.1164 -11.1104 -11.1099
     3.5154   3.5161   3.8622   3.8624   4.4405   4.4415   4.7427   4.7441
     5.5290   5.5300   5.5466   5.5473   8.4301   8.4306   9.2391   9.2393
     9.3248   9.3251   9.5559   9.5560  10.3320  10.3337  10.3424  10.3439
    11.1007  11.1013  11.1996  11.2001

          k =-0.5000 0.2500 0.5000 (  6000 PWs)   bands (ev):

   -34.7929 -34.7929 -34.7844 -34.7844 -34.7834 -34.7834 -34.7735 -34.7735
   -15.5761 -15.5758 -15.5696 -15.5691 -15.5630 -15.5625 -15.5553 -15.5551
   -11.4754 -11.4746 -11.4712 -11.4710 -11.4441 -11.4439 -11.4399 -11.4391
   -11.1392 -11.1376 -11.1345 -11.1325 -11.1296 -11.1277 -11.1248 -11.1232
     3.7081   3.7088   3.7210   3.7216   4.3532   4.3534   4.3535   4.3536
     5.6912   5.6921   5.7049   5.7058   9.0940   9.0941   9.0970   9.0971
    10.0338  10.0344  10.0403  10.0404  10.1945  10.1947  10.1957  10.1959
    10.9832  10.9834  10.9908  10.9911

          k =-0.5000 0.5000 0.2500 (  6000 PWs)   bands (ev):

   -34.7930 -34.7930 -34.7848 -34.7848 -34.7829 -34.7829 -34.7735 -34.7735
   -15.5773 -15.5763 -15.5712 -15.5687 -15.5629 -15.5607 -15.5550 -15.5543
   -11.4772 -11.4751 -11.4726 -11.4721 -11.4502 -11.4501 -11.4329 -11.4296
   -11.1381 -11.1375 -11.1340 -11.1325 -11.1307 -11.1289 -11.1244 -11.1225
     3.7158   3.7174   3.7296   3.7311   4.0085   4.0100   4.7543   4.7554
     5.7072   5.7076   5.7181   5.7184   8.4524   8.4525   9.6134   9.6136
    10.0344  10.0345  10.0590  10.0591  10.0782  10.0782  10.2651  10.2652
    10.9119  10.9128  10.9407  10.9412

     the Fermi energy is     9.3974 ev

!    total energy              =   -2245.89259901 Ry
     Harris-Foulkes estimate   =   -2245.89259940 Ry
     estimated scf accuracy    <       0.00000027 Ry

     total all-electron energy =    -90250.235984 Ry

     The total energy is the sum of the following terms:

     one-electron contribution =     -52.84363580 Ry
     hartree contribution      =      45.39315087 Ry
     xc contribution           =    -255.67197445 Ry
     ewald contribution        =    -234.70652343 Ry
     one-center paw contrib.   =   -1748.06024489 Ry
     smearing contrib. (-TS)   =      -0.00337131 Ry

     convergence has been achieved in   4 iterations

     Forces acting on atoms (cartesian axes, Ry/au):

     atom    1 type  1   force =     0.01280396    0.01395439    0.00076584
     atom    2 type  1   force =     0.01363963   -0.01268163    0.00065379
     atom    3 type  1   force =    -0.01334802    0.01358757    0.00031844
     atom    4 type  1   force =    -0.01335002   -0.01303496    0.00034134
     atom    5 type  2   force =     0.00016252   -0.00252667   -0.00252455
     atom    6 type  2   force =     0.00004233    0.00005354    0.00023574
     atom    7 type  2   force =     0.00004362    0.00004292   -0.00000984
     atom    8 type  2   force =     0.00003970    0.00023550    0.00000953
     atom    9 type  2   force =    -0.00001412    0.00007583   -0.00004984
     atom   10 type  2   force =    -0.00001960    0.00029352    0.00025956

     Total force =     0.037825     Total SCF correction =     0.001759


     Computing stress (Cartesian axis) and pressure

     Message from routine stres:
     noncollinear stress + GGA not implemented

     number of scf cycles    =   2
     number of bfgs steps    =   1

     enthalpy old            =   -2245.8906919860 Ry
     enthalpy new            =   -2245.8925990141 Ry

     CASE: enthalpy_new < enthalpy_old


     WARNING: bfgs curvature condition failed, Theta= 0.982
     new trust radius        =       0.0258070613 bohr
     new conv_thr            =       0.0000001395 Ry

     new unit-cell volume =   1006.37882 a.u.^3 (   149.12995 Ang^3 )
     density =      7.07116 g/cm^3

CELL_PARAMETERS (angstrom)
   5.303000000   0.000000000   0.000000000
   0.000000000   5.303000000   0.000000000
   0.000000000   0.000000000   5.303000000

ATOMIC_POSITIONS (crystal)
Gd       0.003316493   0.003607395   0.000185654
Gd       0.003514947   0.496736509   0.500169207
Gd       0.496568270   0.003507754   0.500087735
Gd       0.496564949   0.496643870   0.000080399
H        0.250037609   0.753279351   0.753286454
H        0.250005343   0.750104674   0.250053268
H        0.250005593   0.250000102   0.249991205
H        0.250004783   0.250050496   0.750101064
H        0.750091697   0.250008044   0.750087736
H        0.750090317   0.250061805   0.250057278



     Writing output data file 2304.save
     NEW-OLD atomic charge density approx. for the potential

     Check: negative/imaginary core charge=   -0.000002    0.000000

     total cpu time spent up to now is       86.9 secs

     per-process dynamical memory:   129.3 Mb

     Self-consistent Calculation

     iteration #  1     ecut=    50.00 Ry     beta=0.70
     Davidson diagonalization with overlap
     ethr =  1.00E-06,  avg # of iterations =  6.9

     total cpu time spent up to now is       97.4 secs

     total energy              =   -2245.89407216 Ry
     Harris-Foulkes estimate   =   -2245.89674590 Ry
     estimated scf accuracy    <       0.00042134 Ry

     iteration #  2     ecut=    50.00 Ry     beta=0.70
     Davidson diagonalization with overlap
     ethr =  8.43E-07,  avg # of iterations =  3.6

     total cpu time spent up to now is      104.5 secs

     total energy              =   -2245.89412727 Ry
     Harris-Foulkes estimate   =   -2245.89443737 Ry
     estimated scf accuracy    <       0.00069488 Ry

     iteration #  3     ecut=    50.00 Ry     beta=0.70
     Davidson diagonalization with overlap
     ethr =  8.43E-07,  avg # of iterations =  2.2

     total cpu time spent up to now is      110.0 secs

     total energy              =   -2245.89424637 Ry
     Harris-Foulkes estimate   =   -2245.89425555 Ry
     estimated scf accuracy    <       0.00000152 Ry

     iteration #  4     ecut=    50.00 Ry     beta=0.70
     Davidson diagonalization with overlap
     ethr =  3.03E-09,  avg # of iterations =  3.9

     total cpu time spent up to now is      117.3 secs

     total energy              =   -2245.89424746 Ry
     Harris-Foulkes estimate   =   -2245.89424766 Ry
     estimated scf accuracy    <       0.00000017 Ry

     iteration #  5     ecut=    50.00 Ry     beta=0.70
     Davidson diagonalization with overlap
     ethr =  3.49E-10,  avg # of iterations =  3.1

     total cpu time spent up to now is      123.7 secs

     End of self-consistent calculation

          k = 0.0000 0.0000 0.0000 (  6031 PWs)   bands (ev):

   -34.8278 -34.8278 -34.7753 -34.7753 -34.7693 -34.7693 -34.7615 -34.7615
   -15.6236 -15.6236 -15.6168 -15.6168 -15.6083 -15.6083 -15.3968 -15.3968
   -11.5451 -11.5451 -11.5365 -11.5365 -11.5077 -11.5077 -11.2422 -11.2422
   -11.2384 -11.2384 -11.2278 -11.2278 -11.0176 -11.0176 -11.0019 -11.0019
     1.9707   1.9707   4.3024   4.3024   4.6102   4.6102   4.8733   4.8733
     5.9104   5.9104   6.7404   6.7404   7.5329   7.5329   7.5343   7.5343
     7.5359   7.5359   9.6643   9.6643  10.5584  10.5584  10.5647  10.5647
    10.7274  10.7274  11.8552  11.8552

          k = 0.0000 0.0000 0.2500 (  6023 PWs)   bands (ev):

   -34.8195 -34.8195 -34.7794 -34.7794 -34.7723 -34.7723 -34.7626 -34.7626
   -15.6215 -15.6205 -15.6104 -15.6099 -15.5851 -15.5839 -15.4296 -15.4295
   -11.5192 -11.5180 -11.4851 -11.4846 -11.4662 -11.4643 -11.2801 -11.2797
   -11.2721 -11.2717 -11.1951 -11.1948 -11.1012 -11.1012 -11.0354 -11.0353
     2.3994   2.3994   4.5134   4.5140   4.6129   4.6131   4.7926   4.7928
     5.6460   5.6476   5.8517   5.8519   7.9527   7.9531   7.9557   7.9564
     8.3352   8.3352   9.3684   9.3686  10.0196  10.0199  10.8273  10.8273
    10.9648  10.9653  12.2284  12.2284

          k = 0.0000 0.0000-0.5000 (  5942 PWs)   bands (ev):

   -34.8036 -34.8036 -34.7940 -34.7940 -34.7731 -34.7731 -34.7631 -34.7631
   -15.6189 -15.6189 -15.6104 -15.6104 -15.5123 -15.5123 -15.5035 -15.5035
   -11.4663 -11.4663 -11.4592 -11.4592 -11.3325 -11.3325 -11.3253 -11.3253
   -11.2894 -11.2894 -11.2825 -11.2825 -11.1200 -11.1200 -11.1113 -11.1113
     3.5015   3.5015   3.5140   3.5140   5.0371   5.0371   5.0387   5.0387
     5.2317   5.2317   5.2404   5.2404   8.5842   8.5842   8.5856   8.5856
     8.9119   8.9119   8.9139   8.9139  10.5984  10.5984  10.6066  10.6066
    11.3348  11.3348  11.3379  11.3379

          k = 0.0000 0.2500 0.2500 (  6016 PWs)   bands (ev):

   -34.8127 -34.8127 -34.7795 -34.7795 -34.7765 -34.7765 -34.7651 -34.7651
   -15.6139 -15.6122 -15.5920 -15.5895 -15.5876 -15.5856 -15.4575 -15.4572
   -11.4994 -11.4974 -11.4642 -11.4612 -11.4493 -11.4485 -11.2793 -11.2776
   -11.2364 -11.2362 -11.2177 -11.2169 -11.1773 -11.1771 -11.0518 -11.0517
     2.7487   2.7488   4.5963   4.5968   4.6802   4.6806   4.7553   4.7561
     5.2113   5.2122   5.6814   5.6817   8.2648   8.2655   8.3387   8.3391
     8.5134   8.5141   9.4339   9.4342   9.7969   9.7970  10.8146  10.8146
    11.1111  11.1112  12.2204  12.2204

          k = 0.0000 0.2500-0.5000 (  6018 PWs)   bands (ev):

   -34.7997 -34.7997 -34.7901 -34.7901 -34.7770 -34.7770 -34.7669 -34.7669
   -15.6054 -15.6052 -15.5963 -15.5958 -15.5294 -15.5290 -15.5198 -15.5196
   -11.4721 -11.4718 -11.4563 -11.4557 -11.3451 -11.3428 -11.3403 -11.3383
   -11.2744 -11.2728 -11.2560 -11.2532 -11.1283 -11.1278 -11.1227 -11.1222
     3.6756   3.6759   3.7073   3.7075   4.8323   4.8326   4.8837   4.8867
     5.1938   5.1955   5.2085   5.2096   8.8145   8.8152   8.8659   8.8677
     8.9939   8.9956   9.0273   9.0275  10.2578  10.2578  10.2725  10.2727
    11.6844  11.6853  11.7323  11.7330

          k = 0.0000-0.5000-0.5000 (  6024 PWs)   bands (ev):

   -34.7932 -34.7932 -34.7840 -34.7840 -34.7835 -34.7835 -34.7731 -34.7731
   -15.5760 -15.5760 -15.5681 -15.5681 -15.5599 -15.5599 -15.5515 -15.5515
   -11.4371 -11.4371 -11.4368 -11.4368 -11.4050 -11.4050 -11.4034 -11.4034
   -11.1870 -11.1870 -11.1867 -11.1867 -11.1694 -11.1694 -11.1677 -11.1677
     3.9836   3.9836   3.9840   3.9840   4.5251   4.5251   4.5473   4.5473
     5.2068   5.2068   5.2081   5.2081   8.9284   8.9284   8.9309   8.9309
     9.7061   9.7061   9.7076   9.7076   9.7522   9.7522   9.7535   9.7535
    11.6759  11.6763  11.6779  11.6956

          k = 0.2500 0.2500 0.2500 (  6007 PWs)   bands (ev):

   -34.8069 -34.8069 -34.7822 -34.7822 -34.7764 -34.7764 -34.7682 -34.7682
   -15.5995 -15.5949 -15.5924 -15.5887 -15.5850 -15.5836 -15.4812 -15.4808
   -11.4919 -11.4898 -11.4675 -11.4652 -11.4555 -11.4528 -11.2706 -11.2696
   -11.2302 -11.2278 -11.2138 -11.2103 -11.2011 -11.1991 -11.0517 -11.0516
     2.9996   2.9997   4.3673   4.3679   4.5314   4.5324   4.7379   4.7390
     5.3007   5.3018   5.6914   5.6925   8.2403   8.2407   8.7737   8.7742
     8.9481   8.9486   9.5013   9.5016   9.7434   9.7434  10.8447  10.8448
    11.0501  11.0502  11.8624  11.8629

          k = 0.2500 0.2500-0.5000 (  6004 PWs)   bands (ev):

   -34.7968 -34.7968 -34.7877 -34.7877 -34.7798 -34.7798 -34.7693 -34.7693
   -15.5962 -15.5959 -15.5880 -15.5875 -15.5433 -15.5430 -15.5315 -15.5313
   -11.4891 -11.4884 -11.4692 -11.4690 -11.3979 -11.3975 -11.3839 -11.3825
   -11.2175 -11.2170 -11.2015 -11.2005 -11.1127 -11.1122 -11.1082 -11.1079
     3.5515   3.5520   3.9558   3.9575   4.2323   4.2343   4.7135   4.7148
     5.4989   5.4993   5.5244   5.5260   8.8683   8.8688   9.0277   9.0280
     9.2860   9.2862   9.4970   9.4971  10.3220  10.3224  10.3438  10.3443
    11.0757  11.0763  11.2550  11.2554

          k = 0.2500-0.5000-0.5000 (  6000 PWs)   bands (ev):

   -34.7930 -34.7930 -34.7838 -34.7838 -34.7836 -34.7836 -34.7732 -34.7732
   -15.5777 -15.5776 -15.5700 -15.5699 -15.5637 -15.5636 -15.5553 -15.5552
   -11.4765 -11.4764 -11.4726 -11.4724 -11.4478 -11.4474 -11.4434 -11.4428
   -11.1392 -11.1388 -11.1349 -11.1347 -11.1283 -11.1275 -11.1241 -11.1237
     3.7092   3.7102   3.7194   3.7203   4.3132   4.3145   4.3226   4.3239
     5.6878   5.6885   5.6979   5.6987   9.1056   9.1058   9.1093   9.1095
    10.0307  10.0308  10.0397  10.0397  10.1950  10.1951  10.1989  10.1991
    10.9695  10.9699  10.9801  10.9805

          k =-0.5000-0.5000-0.5000 (  6008 PWs)   bands (ev):

   -34.7928 -34.7928 -34.7837 -34.7837 -34.7836 -34.7836 -34.7733 -34.7733
   -15.5789 -15.5789 -15.5722 -15.5722 -15.5670 -15.5670 -15.5594 -15.5594
   -11.5056 -11.5056 -11.5023 -11.5023 -11.4783 -11.4783 -11.4745 -11.4745
   -11.0981 -11.0981 -11.0971 -11.0971 -11.0910 -11.0910 -11.0904 -11.0904
     3.4949   3.4949   3.5067   3.5067   4.2001   4.2001   4.2002   4.2002
     6.0276   6.0276   6.0392   6.0392   9.3165   9.3165   9.3166   9.3166
    10.4974  10.4974  10.4981  10.4981  10.5787  10.5787  10.5802  10.5802
    10.6983  10.6983  10.6995  10.6995

          k = 0.2500 0.0000 0.0000 (  6023 PWs)   bands (ev):

   -34.8196 -34.8196 -34.7809 -34.7809 -34.7693 -34.7693 -34.7641 -34.7641
   -15.6179 -15.6165 -15.6160 -15.6156 -15.5838 -15.5826 -15.4291 -15.4289
   -11.5152 -11.5138 -11.5057 -11.5055 -11.4544 -11.4525 -11.2731 -11.2729
   -11.2628 -11.2616 -11.2077 -11.2072 -11.0901 -11.0899 -11.0459 -11.0458
     2.3833   2.3835   4.5526   4.5535   4.5835   4.5840   4.9445   4.9446
     5.2510   5.2513   6.2438   6.2449   7.9403   7.9430   7.9495   7.9505
     8.0066   8.0101   9.6356   9.6358   9.9446   9.9447  10.8322  10.8323
    10.9708  10.9717  12.2364  12.2366

          k = 0.0000 0.2500 0.0000 (  6023 PWs)   bands (ev):

   -34.8197 -34.8197 -34.7793 -34.7793 -34.7722 -34.7722 -34.7627 -34.7627
   -15.6205 -15.6201 -15.6125 -15.6118 -15.5839 -15.5836 -15.4290 -15.4290
   -11.5151 -11.5147 -11.5053 -11.5050 -11.4535 -11.4534 -11.2736 -11.2733
   -11.2616 -11.2616 -11.2076 -11.2076 -11.0901 -11.0900 -11.0458 -11.0458
     2.3833   2.3835   4.5522   4.5528   4.5842   4.5845   4.9443   4.9447
     5.2511   5.2512   6.2440   6.2448   7.9406   7.9414   7.9496   7.9506
     8.0087   8.0091   9.6357   9.6358   9.9446   9.9447  10.8323  10.8324
    10.9710  10.9716  12.2365  12.2366

          k =-0.5000 0.0000 0.0000 (  5942 PWs)   bands (ev):

   -34.8030 -34.8030 -34.7960 -34.7960 -34.7692 -34.7692 -34.7656 -34.7656
   -15.6156 -15.6156 -15.6148 -15.6148 -15.5188 -15.5188 -15.4957 -15.4957
   -11.4764 -11.4764 -11.4711 -11.4711 -11.3178 -11.3178 -11.3131 -11.3131
   -11.3065 -11.3065 -11.2465 -11.2465 -11.1395 -11.1395 -11.1157 -11.1157
     3.1900   3.1900   3.8820   3.8820   4.9591   4.9591   4.9678   4.9678
     5.2883   5.2883   5.3797   5.3797   8.2145   8.2145   8.5768   8.5768
     8.5812   8.5812   9.5856   9.5856  10.4153  10.4153  10.7098  10.7098
    11.3655  11.3655  11.4608  11.4608

          k = 0.0000-0.5000 0.0000 (  5942 PWs)   bands (ev):

   -34.8046 -34.8046 -34.7930 -34.7930 -34.7731 -34.7731 -34.7631 -34.7631
   -15.6192 -15.6192 -15.6108 -15.6108 -15.5198 -15.5198 -15.4951 -15.4951
   -11.4781 -11.4781 -11.4694 -11.4694 -11.3180 -11.3180 -11.3128 -11.3128
   -11.3065 -11.3065 -11.2465 -11.2465 -11.1403 -11.1403 -11.1150 -11.1150
     3.1897   3.1897   3.8823   3.8823   4.9590   4.9590   4.9677   4.9677
     5.2879   5.2879   5.3802   5.3802   8.2145   8.2145   8.5768   8.5768
     8.5813   8.5813   9.5856   9.5856  10.4158  10.4158  10.7095  10.7095
    11.3656  11.3656  11.4611  11.4611

          k = 0.0000-0.2500 0.2500 (  6016 PWs)   bands (ev):

   -34.8127 -34.8127 -34.7795 -34.7795 -34.7765 -34.7765 -34.7651 -34.7651
   -15.6140 -15.6121 -15.5920 -15.5896 -15.5875 -15.5855 -15.4575 -15.4573
   -11.4996 -11.4973 -11.4640 -11.4614 -11.4492 -11.4485 -11.2791 -11.2779
   -11.2363 -11.2362 -11.2177 -11.2168 -11.1773 -11.1772 -11.0518 -11.0517
     2.7486   2.7489   4.5957   4.5972   4.6779   4.6812   4.7561   4.7572
     5.2117   5.2120   5.6816   5.6816   8.2646   8.2652   8.3385   8.3390
     8.5137   8.5140   9.4341   9.4341   9.7969   9.7970  10.8146  10.8146
    11.1104  11.1115  12.2203  12.2204

          k = 0.2500 0.0000-0.2500 (  6016 PWs)   bands (ev):

   -34.8126 -34.8126 -34.7815 -34.7815 -34.7739 -34.7739 -34.7658 -34.7658
   -15.6128 -15.6122 -15.5950 -15.5912 -15.5867 -15.5827 -15.4576 -15.4573
   -11.4989 -11.4978 -11.4638 -11.4616 -11.4507 -11.4467 -11.2791 -11.2784
   -11.2378 -11.2348 -11.2185 -11.2156 -11.1778 -11.1769 -11.0519 -11.0518
     2.7501   2.7503   4.5973   4.5993   4.6801   4.6823   4.7557   4.7572
     5.2086   5.2098   5.6776   5.6784   8.2641   8.2656   8.3382   8.3405
     8.5103   8.5109   9.4329   9.4333   9.7974   9.7974  10.8167  10.8168
    11.1119  11.1125  12.2200  12.2202

          k =-0.2500 0.0000-0.2500 (  6016 PWs)   bands (ev):

   -34.8126 -34.8126 -34.7815 -34.7815 -34.7739 -34.7739 -34.7658 -34.7658
   -15.6128 -15.6122 -15.5951 -15.5911 -15.5868 -15.5827 -15.4575 -15.4572
   -11.4990 -11.4979 -11.4639 -11.4618 -11.4508 -11.4469 -11.2789 -11.2780
   -11.2376 -11.2346 -11.2186 -11.2158 -11.1778 -11.1769 -11.0517 -11.0515
     2.7473   2.7475   4.5937   4.5957   4.6785   4.6805   4.7542   4.7554
     5.2140   5.2152   5.6850   5.6859   8.2647   8.2661   8.3370   8.3393
     8.5166   8.5172   9.4349   9.4353   9.7966   9.7966  10.8123  10.8124
    11.1098  11.1103  12.2205  12.2207

          k = 0.2500-0.2500 0.0000 (  6016 PWs)   bands (ev):

   -34.8127 -34.8127 -34.7813 -34.7813 -34.7739 -34.7739 -34.7659 -34.7659
   -15.6136 -15.6120 -15.5950 -15.5950 -15.5837 -15.5819 -15.4572 -15.4568
   -11.5049 -11.5032 -11.4678 -11.4667 -11.4421 -11.4407 -11.2691 -11.2671
   -11.2343 -11.2341 -11.2280 -11.2270 -11.1737 -11.1735 -11.0551 -11.0550
     2.7327   2.7329   4.5660   4.5675   4.7471   4.7491   4.8338   4.8352
     5.0008   5.0018   5.9431   5.9440   7.8226   7.8229   8.3354   8.3363
     8.7042   8.7046   9.4828   9.4830   9.8016   9.8017  10.8166  10.8168
    11.1113  11.1118  12.2461  12.2462

          k =-0.2500-0.2500 0.0000 (  6016 PWs)   bands (ev):

   -34.8127 -34.8127 -34.7816 -34.7816 -34.7737 -34.7737 -34.7658 -34.7658
   -15.6139 -15.6120 -15.5940 -15.5920 -15.5850 -15.5847 -15.4570 -15.4567
   -11.5042 -11.5027 -11.4655 -11.4648 -11.4455 -11.4440 -11.2691 -11.2674
   -11.2351 -11.2335 -11.2295 -11.2273 -11.1721 -11.1719 -11.0549 -11.0548
     2.7292   2.7294   4.5629   4.5642   4.7454   4.7476   4.8384   4.8397
     5.0016   5.0026   5.9488   5.9497   7.8212   7.8214   8.3372   8.3381
     8.7093   8.7096   9.4835   9.4837   9.8023   9.8023  10.8133  10.8135
    11.1099  11.1103  12.2459  12.2465

          k = 0.2500 0.0000 0.5000 (  6018 PWs)   bands (ev):

   -34.7997 -34.7997 -34.7901 -34.7901 -34.7770 -34.7770 -34.7669 -34.7669
   -15.6053 -15.6052 -15.5961 -15.5960 -15.5292 -15.5292 -15.5198 -15.5197
   -11.4721 -11.4719 -11.4562 -11.4559 -11.3449 -11.3427 -11.3402 -11.3379
   -11.2739 -11.2738 -11.2550 -11.2545 -11.1281 -11.1279 -11.1224 -11.1224
     3.6753   3.6755   3.7077   3.7079   4.8323   4.8326   4.8844   4.8847
     5.1911   5.1927   5.2115   5.2134   8.8147   8.8148   8.8668   8.8668
     8.9945   8.9946   9.0275   9.0276  10.2570  10.2571  10.2733  10.2734
    11.6847  11.6848  11.7326  11.7327

          k =-0.5000-0.2500 0.0000 (  6018 PWs)   bands (ev):

   -34.7989 -34.7989 -34.7926 -34.7926 -34.7735 -34.7735 -34.7688 -34.7688
   -15.6044 -15.6041 -15.5984 -15.5979 -15.5341 -15.5336 -15.5140 -15.5137
   -11.4848 -11.4845 -11.4549 -11.4547 -11.3551 -11.3550 -11.3144 -11.3143
   -11.2719 -11.2710 -11.2473 -11.2467 -11.1374 -11.1371 -11.1257 -11.1256
     3.4147   3.4148   3.9662   3.9667   4.6516   4.6526   5.0181   5.0192
     5.2877   5.2889   5.3492   5.3498   8.0203   8.0206   8.9222   8.9225
     8.9358   8.9359   9.6657   9.6657  10.2194  10.2195  10.2406  10.2406
    11.6949  11.6961  11.7133  11.7142

          k = 0.0000-0.5000 0.2500 (  6018 PWs)   bands (ev):

   -34.8003 -34.8003 -34.7894 -34.7894 -34.7771 -34.7771 -34.7670 -34.7670
   -15.6076 -15.6030 -15.5984 -15.5939 -15.5363 -15.5342 -15.5144 -15.5125
   -11.4852 -11.4821 -11.4554 -11.4510 -11.3558 -11.3544 -11.3198 -11.3192
   -11.2745 -11.2696 -11.2450 -11.2418 -11.1388 -11.1376 -11.1255 -11.1243
     3.4143   3.4144   4.0692   4.0699   4.6424   4.6426   4.9725   4.9739
     5.1242   5.1250   5.3288   5.3289   8.4431   8.4433   8.8994   8.8996
     8.9415   8.9416   9.3713   9.3714  10.2487  10.2489  10.2922  10.2923
    11.6897  11.6901  11.7472  11.7481

          k = 0.2500-0.5000 0.0000 (  6018 PWs)   bands (ev):

   -34.8004 -34.8004 -34.7895 -34.7895 -34.7769 -34.7769 -34.7670 -34.7670
   -15.6078 -15.6035 -15.5984 -15.5942 -15.5360 -15.5338 -15.5143 -15.5122
   -11.4863 -11.4830 -11.4571 -11.4525 -11.3554 -11.3547 -11.3144 -11.3137
   -11.2740 -11.2692 -11.2489 -11.2454 -11.1381 -11.1372 -11.1257 -11.1248
     3.4145   3.4146   3.9666   3.9670   4.6510   4.6530   5.0183   5.0188
[...]

   -34.8184 -34.8184 -34.7748 -34.7748 -34.7683 -34.7683 -34.7640 -34.7640
   -15.6206 -15.6203 -15.6167 -15.6164 -15.5878 -15.5878 -15.4266 -15.4265
   -11.5278 -11.5278 -11.5126 -11.5126 -11.4641 -11.4640 -11.2768 -11.2768
   -11.2620 -11.2618 -11.2088 -11.2088 -11.0871 -11.0871 -11.0427 -11.0427
     2.3672   2.3673   4.5296   4.5297   4.5665   4.5667   4.7743   4.7744
     5.2453   5.2454   6.2083   6.2086   7.9302   7.9315   7.9445   7.9448
     7.9906   7.9918   9.6928   9.6929  10.0209  10.0210  10.8128  10.8129
    10.9540  10.9542  12.2450  12.2451

          k =-0.5000 0.0000 0.0000 (  5942 PWs)   bands (ev):

   -34.8041 -34.8041 -34.7892 -34.7892 -34.7662 -34.7662 -34.7660 -34.7660
   -15.6179 -15.6179 -15.6173 -15.6173 -15.5305 -15.5305 -15.4854 -15.4854
   -11.4902 -11.4902 -11.4863 -11.4863 -11.3295 -11.3295 -11.3156 -11.3156
   -11.3122 -11.3122 -11.2291 -11.2291 -11.1519 -11.1519 -11.1013 -11.1013
     3.1408   3.1408   3.9086   3.9086   4.8213   4.8213   4.9213   4.9213
     5.2990   5.2990   5.3093   5.3093   8.2016   8.2016   8.5646   8.5646
     8.5697   8.5697   9.6810   9.6810  10.5743  10.5743  10.6182  10.6182
    11.3096  11.3096  11.3715  11.3715

          k = 0.0000-0.5000 0.0000 (  5942 PWs)   bands (ev):

   -34.8043 -34.8043 -34.7887 -34.7887 -34.7685 -34.7685 -34.7641 -34.7641
   -15.6195 -15.6195 -15.6156 -15.6156 -15.5306 -15.5306 -15.4853 -15.4853
   -11.4907 -11.4907 -11.4859 -11.4859 -11.3294 -11.3294 -11.3162 -11.3162
   -11.3117 -11.3117 -11.2290 -11.2290 -11.1520 -11.1520 -11.1013 -11.1013
     3.1406   3.1406   3.9089   3.9089   4.8213   4.8213   4.9212   4.9212
     5.2976   5.2976   5.3107   5.3107   8.2017   8.2017   8.5646   8.5646
     8.5697   8.5697   9.6810   9.6810  10.5746  10.5746  10.6179  10.6179
    11.3098  11.3098  11.3717  11.3717

          k = 0.0000-0.2500 0.2500 (  6016 PWs)   bands (ev):

   -34.8109 -34.8109 -34.7751 -34.7751 -34.7733 -34.7733 -34.7661 -34.7661
   -15.6153 -15.6142 -15.5949 -15.5943 -15.5891 -15.5888 -15.4559 -15.4557
   -11.5132 -11.5119 -11.4796 -11.4783 -11.4476 -11.4468 -11.2875 -11.2865
   -11.2487 -11.2482 -11.2087 -11.2080 -11.1686 -11.1685 -11.0494 -11.0493
     2.7326   2.7326   4.5256   4.5263   4.6306   4.6319   4.7180   4.7183
     5.2020   5.2022   5.5969   5.5970   8.2535   8.2542   8.3361   8.3370
     8.5015   8.5017   9.4798   9.4799   9.8828   9.8829  10.8050  10.8051
    11.0840  11.0843  12.2007  12.2007

          k = 0.2500 0.0000-0.2500 (  6016 PWs)   bands (ev):

   -34.8109 -34.8109 -34.7761 -34.7761 -34.7719 -34.7719 -34.7665 -34.7665
   -15.6148 -15.6145 -15.5964 -15.5929 -15.5908 -15.5872 -15.4559 -15.4557
   -11.5126 -11.5123 -11.4795 -11.4786 -11.4482 -11.4461 -11.2873 -11.2867
   -11.2494 -11.2475 -11.2089 -11.2076 -11.1689 -11.1684 -11.0495 -11.0493
     2.7331   2.7332   4.5260   4.5267   4.6315   4.6326   4.7184   4.7193
     5.2006   5.2010   5.5948   5.5953   8.2536   8.2540   8.3364   8.3373
     8.5001   8.5002   9.4795   9.4798   9.8830   9.8830  10.8062  10.8062
    11.0848  11.0850  12.2005  12.2008

          k =-0.2500 0.0000-0.2500 (  6016 PWs)   bands (ev):

   -34.8109 -34.8109 -34.7761 -34.7761 -34.7719 -34.7719 -34.7665 -34.7665
   -15.6148 -15.6145 -15.5965 -15.5929 -15.5907 -15.5871 -15.4559 -15.4557
   -11.5128 -11.5124 -11.4794 -11.4785 -11.4483 -11.4462 -11.2873 -11.2867
   -11.2493 -11.2474 -11.2090 -11.2077 -11.1688 -11.1683 -11.0494 -11.0493
     2.7320   2.7320   4.5255   4.5259   4.6301   4.6312   4.7164   4.7173
     5.2035   5.2039   5.5989   5.5994   8.2539   8.2542   8.3359   8.3367
     8.5030   8.5031   9.4799   9.4801   9.8827   9.8827  10.8039  10.8039
    11.0833  11.0834  12.2003  12.2007

          k = 0.2500-0.2500 0.0000 (  6016 PWs)   bands (ev):

   -34.8114 -34.8114 -34.7755 -34.7755 -34.7717 -34.7717 -34.7668 -34.7668
   -15.6157 -15.6148 -15.5952 -15.5952 -15.5896 -15.5885 -15.4545 -15.4543
   -11.5231 -11.5224 -11.4684 -11.4683 -11.4521 -11.4510 -11.2767 -11.2755
   -11.2454 -11.2452 -11.2230 -11.2222 -11.1610 -11.1610 -11.0533 -11.0532
     2.7125   2.7125   4.5140   4.5146   4.7491   4.7511   4.7895   4.7921
     4.8817   4.8828   5.9177   5.9181   7.8134   7.8136   8.3298   8.3300
     8.6889   8.6891   9.5120   9.5121   9.8882   9.8882  10.7984  10.7985
    11.0939  11.0942  12.2650  12.2652

          k =-0.2500-0.2500 0.0000 (  6016 PWs)   bands (ev):

   -34.8114 -34.8114 -34.7758 -34.7758 -34.7714 -34.7714 -34.7668 -34.7668
   -15.6159 -15.6147 -15.5937 -15.5927 -15.5912 -15.5909 -15.4544 -15.4542
   -11.5227 -11.5219 -11.4694 -11.4692 -11.4518 -11.4505 -11.2764 -11.2749
   -11.2455 -11.2451 -11.2245 -11.2234 -11.1600 -11.1599 -11.0532 -11.0531
     2.7110   2.7111   4.5126   4.5131   4.7491   4.7507   4.7896   4.7917
     4.8838   4.8847   5.9202   5.9206   7.8130   7.8131   8.3306   8.3308
     8.6910   8.6911   9.5121   9.5122   9.8884   9.8884  10.7970  10.7970
    11.0934  11.0935  12.2653  12.2654

          k = 0.2500 0.0000 0.5000 (  6018 PWs)   bands (ev):

   -34.7948 -34.7948 -34.7906 -34.7906 -34.7721 -34.7721 -34.7679 -34.7679
   -15.6062 -15.6061 -15.6015 -15.6015 -15.5269 -15.5269 -15.5223 -15.5222
   -11.4800 -11.4800 -11.4738 -11.4736 -11.3582 -11.3580 -11.3435 -11.3435
   -11.2700 -11.2699 -11.2508 -11.2507 -11.1230 -11.1229 -11.1201 -11.1200
     3.6531   3.6532   3.6800   3.6801   4.8201   4.8203   4.8517   4.8520
     5.1127   5.1142   5.1221   5.1236   8.8087   8.8088   8.8570   8.8571
     9.0310   9.0310   9.0570   9.0570  10.2737  10.2738  10.2920  10.2921
    11.5629  11.5630  11.6201  11.6202

          k =-0.5000-0.2500 0.0000 (  6018 PWs)   bands (ev):

   -34.7990 -34.7990 -34.7863 -34.7863 -34.7710 -34.7710 -34.7690 -34.7690
   -15.6084 -15.6081 -15.5996 -15.5992 -15.5436 -15.5435 -15.5052 -15.5052
   -11.5056 -11.5054 -11.4584 -11.4582 -11.3684 -11.3684 -11.3156 -11.3155
   -11.2804 -11.2802 -11.2350 -11.2349 -11.1395 -11.1394 -11.1173 -11.1172
     3.3688   3.3689   3.9843   3.9846   4.6136   4.6142   4.8601   4.8603
     5.2976   5.2983   5.3110   5.3112   8.0296   8.0297   8.9062   8.9063
     8.9222   8.9223   9.7567   9.7567  10.1278  10.1278  10.3076  10.3076
    11.6390  11.6393  11.6892  11.6894

          k = 0.0000-0.5000 0.2500 (  6018 PWs)   bands (ev):

   -34.7989 -34.7989 -34.7854 -34.7854 -34.7730 -34.7730 -34.7681 -34.7681
   -15.6089 -15.6063 -15.5996 -15.5970 -15.5451 -15.5445 -15.5062 -15.5057
   -11.5036 -11.5022 -11.4580 -11.4557 -11.3698 -11.3694 -11.3243 -11.3242
   -11.2817 -11.2794 -11.2289 -11.2277 -11.1407 -11.1402 -11.1163 -11.1158
     3.3680   3.3681   4.0853   4.0855   4.5550   4.5551   4.9410   4.9421
     5.0990   5.1000   5.2386   5.2389   8.4459   8.4460   8.8828   8.8830
     8.9281   8.9283   9.4738   9.4738  10.2669  10.2671  10.3357  10.3358
    11.5368  11.5370  11.6877  11.6878

          k = 0.2500-0.5000 0.0000 (  6018 PWs)   bands (ev):

   -34.7992 -34.7992 -34.7857 -34.7857 -34.7726 -34.7726 -34.7679 -34.7679
   -15.6097 -15.6071 -15.6004 -15.5978 -15.5440 -15.5434 -15.5054 -15.5048
   -11.5062 -11.5048 -11.4594 -11.4572 -11.3685 -11.3683 -11.3156 -11.3154
   -11.2815 -11.2792 -11.2358 -11.2342 -11.1398 -11.1393 -11.1174 -11.1170
     3.3687   3.3687   3.9846   3.9848   4.6133   4.6142   4.8600   4.8604
     5.2958   5.2997   5.3095   5.3131   8.0296   8.0298   8.9062   8.9063
     8.9222   8.9223   9.7567   9.7568  10.1276  10.1277  10.3077  10.3079
    11.6387  11.6396  11.6891  11.6895

          k =-0.5000 0.0000 0.2500 (  6018 PWs)   bands (ev):

   -34.7987 -34.7987 -34.7860 -34.7860 -34.7715 -34.7715 -34.7692 -34.7692
   -15.6076 -15.6072 -15.5988 -15.5984 -15.5447 -15.5446 -15.5061 -15.5060
   -11.5030 -11.5028 -11.4572 -11.4566 -11.3705 -11.3686 -11.3249 -11.3236
   -11.2810 -11.2802 -11.2286 -11.2280 -11.1405 -11.1403 -11.1161 -11.1161
     3.3681   3.3682   4.0849   4.0854   4.5549   4.5553   4.9400   4.9429
     5.0976   5.1010   5.2389   5.2395   8.4458   8.4459   8.8828   8.8829
     8.9282   8.9283   9.4738   9.4739  10.2672  10.2672  10.3355  10.3356
    11.5366  11.5370  11.6869  11.6880

          k =-0.5000 0.0000 0.5000 (  6024 PWs)   bands (ev):

   -34.7880 -34.7880 -34.7835 -34.7835 -34.7789 -34.7789 -34.7749 -34.7749
   -15.5794 -15.5794 -15.5758 -15.5758 -15.5552 -15.5552 -15.5519 -15.5519
   -11.4529 -11.4529 -11.4524 -11.4524 -11.4085 -11.4085 -11.4078 -11.4078
   -11.1914 -11.1914 -11.1906 -11.1906 -11.1595 -11.1595 -11.1587 -11.1587
     3.9321   3.9321   3.9359   3.9359   4.5332   4.5332   4.5354   4.5354
     5.1231   5.1231   5.1326   5.1326   8.9656   8.9656   8.9656   8.9656
     9.7310   9.7310   9.7326   9.7326   9.7560   9.7560   9.7567   9.7567
    11.5964  11.5965  11.5970  11.5971

          k =-0.5000 0.5000 0.0000 (  6024 PWs)   bands (ev):

   -34.7903 -34.7903 -34.7826 -34.7826 -34.7789 -34.7789 -34.7735 -34.7735
   -15.5869 -15.5869 -15.5747 -15.5747 -15.5573 -15.5573 -15.5426 -15.5426
   -11.4678 -11.4678 -11.4594 -11.4594 -11.4038 -11.4038 -11.3844 -11.3844
   -11.1983 -11.1983 -11.1904 -11.1904 -11.1672 -11.1672 -11.1519 -11.1519
     3.8537   3.8537   4.0577   4.0577   4.0655   4.0655   4.8940   4.8940
     5.3025   5.3025   5.3122   5.3122   7.8808   7.8808   9.6139   9.6139
     9.6335   9.6335   9.6682   9.6682   9.8067   9.8067   9.8402   9.8402
    11.6491  11.6493  11.6944  11.6944

          k =-0.2500-0.2500 0.2500 (  6007 PWs)   bands (ev):

   -34.8051 -34.8051 -34.7766 -34.7766 -34.7735 -34.7735 -34.7702 -34.7702
   -15.5999 -15.5972 -15.5926 -15.5920 -15.5901 -15.5880 -15.4796 -15.4794
   -11.5090 -11.5079 -11.4795 -11.4789 -11.4512 -11.4497 -11.2878 -11.2872
   -11.2377 -11.2359 -11.2035 -11.2018 -11.1890 -11.1880 -11.0500 -11.0499
     2.9849   2.9850   4.3692   4.3715   4.4731   4.4752   4.6121   4.6127
     5.3020   5.3025   5.6285   5.6289   8.2388   8.2390   8.7610   8.7612
     8.9340   8.9341   9.5273   9.5274   9.8294   9.8295  10.8350  10.8355
    11.0423  11.0429  11.8491  11.8501

          k =-0.2500 0.2500-0.2500 (  6007 PWs)   bands (ev):

   -34.8051 -34.8051 -34.7764 -34.7764 -34.7734 -34.7734 -34.7705 -34.7705
   -15.5999 -15.5973 -15.5948 -15.5921 -15.5891 -15.5866 -15.4796 -15.4794
   -11.5099 -11.5088 -11.4784 -11.4777 -11.4516 -11.4500 -11.2879 -11.2873
   -11.2369 -11.2352 -11.2025 -11.2007 -11.1906 -11.1896 -11.0501 -11.0500
     2.9853   2.9854   4.3657   4.3678   4.4759   4.4778   4.6107   4.6113
     5.3058   5.3063   5.6271   5.6276   8.2384   8.2386   8.7623   8.7625
     8.9335   8.9338   9.5268   9.5269   9.8290   9.8291  10.8346  10.8352
    11.0416  11.0423  11.8490  11.8500

          k = 0.2500-0.2500-0.2500 (  6007 PWs)   bands (ev):

   -34.8051 -34.8051 -34.7764 -34.7764 -34.7734 -34.7734 -34.7705 -34.7705
   -15.5998 -15.5973 -15.5949 -15.5921 -15.5891 -15.5866 -15.4796 -15.4794
   -11.5097 -11.5088 -11.4784 -11.4776 -11.4516 -11.4501 -11.2878 -11.2873
   -11.2368 -11.2352 -11.2025 -11.2010 -11.1905 -11.1896 -11.0502 -11.0501
     2.9867   2.9868   4.3686   4.3689   4.4755   4.4762   4.6123   4.6131
     5.3028   5.3032   5.6241   5.6245   8.2388   8.2390   8.7608   8.7610
     8.9326   8.9327   9.5275   9.5276   9.8293   9.8293  10.8358  10.8359
    11.0430  11.0431  11.8495  11.8498

          k =-0.2500 0.2500 0.5000 (  6004 PWs)   bands (ev):

   -34.7920 -34.7920 -34.7874 -34.7874 -34.7748 -34.7748 -34.7710 -34.7710
   -15.5983 -15.5982 -15.5916 -15.5914 -15.5402 -15.5400 -15.5353 -15.5352
   -11.4975 -11.4968 -11.4826 -11.4825 -11.4028 -11.4027 -11.3940 -11.3928
   -11.2121 -11.2119 -11.2033 -11.2025 -11.1101 -11.1098 -11.1058 -11.1057
     3.5561   3.5563   3.8873   3.8881   4.2358   4.2367   4.5925   4.5932
     5.4239   5.4243   5.5316   5.5324   8.9161   8.9164   9.0125   9.0127
     9.2822   9.2823   9.5261   9.5262  10.3175  10.3176  10.3572  10.3573
    11.0700  11.0702  11.2477  11.2478

          k =-0.5000-0.2500 0.2500 (  6004 PWs)   bands (ev):

   -34.7948 -34.7948 -34.7844 -34.7844 -34.7734 -34.7734 -34.7726 -34.7726
   -15.5977 -15.5970 -15.5918 -15.5911 -15.5539 -15.5537 -15.5223 -15.5221
   -11.5117 -11.5116 -11.4729 -11.4726 -11.4133 -11.4124 -11.3768 -11.3761
   -11.2223 -11.2221 -11.1880 -11.1879 -11.1208 -11.1206 -11.1022 -11.1021
     3.4708   3.4710   3.8805   3.8808   4.3725   4.3726   4.5623   4.5628
     5.4965   5.4968   5.5274   5.5278   8.4502   8.4503   9.2158   9.2159
     9.2980   9.2981   9.6642   9.6642  10.2349  10.2351  10.4425  10.4427
    11.0675  11.0675  11.2054  11.2060

          k = 0.5000-0.2500-0.2500 (  6004 PWs)   bands (ev):

   -34.7948 -34.7948 -34.7844 -34.7844 -34.7734 -34.7734 -34.7725 -34.7725
   -15.5977 -15.5970 -15.5918 -15.5911 -15.5539 -15.5538 -15.5222 -15.5221
   -11.5118 -11.5116 -11.4729 -11.4726 -11.4133 -11.4124 -11.3768 -11.3761
   -11.2223 -11.2221 -11.1880 -11.1879 -11.1207 -11.1207 -11.1022 -11.1022
     3.4707   3.4708   3.8803   3.8808   4.3724   4.3729   4.5622   4.5629
     5.4965   5.4967   5.5273   5.5284   8.4502   8.4502   9.2158   9.2160
     9.2980   9.2981   9.6642   9.6642  10.2349  10.2350  10.4426  10.4427
    11.0676  11.0676  11.2056  11.2058

          k =-0.2500-0.5000 0.2500 (  6004 PWs)   bands (ev):

   -34.7950 -34.7950 -34.7836 -34.7836 -34.7754 -34.7754 -34.7711 -34.7711
   -15.5992 -15.5953 -15.5933 -15.5895 -15.5544 -15.5537 -15.5224 -15.5218
   -11.5123 -11.5110 -11.4737 -11.4717 -11.4134 -11.4124 -11.3769 -11.3759
   -11.2233 -11.2212 -11.1887 -11.1872 -11.1209 -11.1207 -11.1023 -11.1020
     3.4717   3.4720   3.8816   3.8819   4.3712   4.3719   4.5623   4.5635
     5.4931   5.4949   5.5269   5.5282   8.4505   8.4507   9.2154   9.2156
     9.2978   9.2980   9.6639   9.6640  10.2343  10.2345  10.4438  10.4440
    11.0675  11.0678  11.2060  11.2062

          k =-0.2500 0.5000-0.2500 (  6004 PWs)   bands (ev):

   -34.7950 -34.7950 -34.7836 -34.7836 -34.7754 -34.7754 -34.7711 -34.7711
   -15.5993 -15.5953 -15.5933 -15.5894 -15.5544 -15.5537 -15.5224 -15.5217
   -11.5124 -11.5111 -11.4738 -11.4718 -11.4134 -11.4124 -11.3769 -11.3759
   -11.2232 -11.2211 -11.1887 -11.1872 -11.1209 -11.1206 -11.1023 -11.1020
     3.4694   3.4697   3.8796   3.8798   4.3734   4.3740   4.5617   4.5628
     5.4975   5.4994   5.5277   5.5291   8.4498   8.4500   9.2162   9.2163
     9.2981   9.2982   9.6642   9.6643  10.2351  10.2353  10.4416  10.4418
    11.0672  11.0674  11.2052  11.2054

          k =-0.5000 0.2500 0.5000 (  6000 PWs)   bands (ev):

   -34.7870 -34.7870 -34.7826 -34.7826 -34.7797 -34.7797 -34.7758 -34.7758
   -15.5792 -15.5790 -15.5751 -15.5747 -15.5618 -15.5614 -15.5578 -15.5575
   -11.4851 -11.4844 -11.4820 -11.4812 -11.4556 -11.4546 -11.4523 -11.4517
   -11.1423 -11.1411 -11.1394 -11.1378 -11.1223 -11.1208 -11.1191 -11.1179
     3.7095   3.7099   3.7153   3.7155   4.2183   4.2185   4.2213   4.2216
     5.6736   5.6739   5.6797   5.6801   9.1403   9.1405   9.1428   9.1428
    10.0236  10.0239  10.0412  10.0413  10.1974  10.1975  10.2095  10.2095
    10.9233  10.9234  10.9264  10.9266

          k =-0.5000 0.5000 0.2500 (  6000 PWs)   bands (ev):

   -34.7884 -34.7884 -34.7824 -34.7824 -34.7791 -34.7791 -34.7752 -34.7752
   -15.5838 -15.5834 -15.5753 -15.5749 -15.5628 -15.5623 -15.5519 -15.5515
   -11.4935 -11.4922 -11.4886 -11.4871 -11.4485 -11.4472 -11.4441 -11.4423
   -11.1474 -11.1470 -11.1339 -11.1336 -11.1278 -11.1277 -11.1141 -11.1140
     3.7293   3.7304   3.7394   3.7400   3.8926   3.8937   4.5360   4.5366
     5.7182   5.7186   5.7236   5.7238   8.4745   8.4746   9.6658   9.6659
     9.9875   9.9888  10.0136  10.0148  10.0498  10.0499  10.2947  10.2949
    10.8557  10.8562  11.0206  11.0209

     the Fermi energy is     9.4425 ev

!    total energy              =   -2245.89629761 Ry
     Harris-Foulkes estimate   =   -2245.89629506 Ry
     estimated scf accuracy    <          2.8E-09 Ry

     total all-electron energy =    -90250.239683 Ry

     The total energy is the sum of the following terms:

     one-electron contribution =     -54.39658910 Ry
     hartree contribution      =      46.16273761 Ry
     xc contribution           =    -255.70475500 Ry
     ewald contribution        =    -233.89458537 Ry
     one-center paw contrib.   =   -1748.06036707 Ry
     smearing contrib. (-TS)   =      -0.00273869 Ry

     convergence has been achieved in   9 iterations

     Forces acting on atoms (cartesian axes, Ry/au):

     atom    1 type  1   force =     0.00001563   -0.00007597   -0.00002720
     atom    2 type  1   force =    -0.00016255    0.00008669    0.00003096
     atom    3 type  1   force =     0.00009862    0.00002321    0.00009943
     atom    4 type  1   force =     0.00011412    0.00018015    0.00009037
     atom    5 type  2   force =    -0.00001962   -0.00099379   -0.00097880
     atom    6 type  2   force =     0.00000623    0.00014178    0.00013144
     atom    7 type  2   force =    -0.00000523    0.00017286    0.00018989
     atom    8 type  2   force =    -0.00000632    0.00010529    0.00015870
     atom    9 type  2   force =    -0.00002176    0.00016600    0.00012352
     atom   10 type  2   force =    -0.00001913    0.00019378    0.00018169

     Total force =     0.001522     Total SCF correction =     0.000194
     SCF correction compared to forces is large: reduce conv_thr to get better values


     Computing stress (Cartesian axis) and pressure

     Message from routine stres:
     noncollinear stress + GGA not implemented

     Writing output data file 2304.save
 
     init_run     :      6.46s CPU      7.09s WALL (       2 calls)
     electrons    :    297.23s CPU    304.52s WALL (       8 calls)
     update_pot   :      1.94s CPU      2.41s WALL (       6 calls)
     forces       :     16.06s CPU     16.19s WALL (       8 calls)

     Called by init_run:
     wfcinit      :      5.55s CPU      5.90s WALL (       2 calls)
     potinit      :      0.38s CPU      0.42s WALL (       2 calls)

     Called by electrons:
     c_bands      :    256.20s CPU    260.78s WALL (      43 calls)
     sum_band     :     31.26s CPU     32.01s WALL (      43 calls)
     v_of_rho     :      0.15s CPU      0.16s WALL (      49 calls)
     newd         :      4.11s CPU      4.16s WALL (      49 calls)
     PAW_pot      :      7.91s CPU      8.02s WALL (      55 calls)
     mix_rho      :      0.16s CPU      0.17s WALL (      43 calls)

     Called by c_bands:
     init_us_2    :      1.16s CPU      1.19s WALL (    3672 calls)
     cegterg      :    234.80s CPU    238.89s WALL (    1548 calls)

     Called by sum_band:
     sum_band:bec :      7.88s CPU      7.89s WALL (    1764 calls)
     addusdens    :      1.12s CPU      1.14s WALL (      43 calls)

     Called by *egterg:
     h_psi        :    131.69s CPU    135.65s WALL (    7403 calls)
     s_psi        :     14.90s CPU     14.96s WALL (    7403 calls)
     g_psi        :      0.87s CPU      0.87s WALL (    5783 calls)
     cdiaghg      :     51.21s CPU     51.43s WALL (    7043 calls)

     Called by h_psi:
     h_psi:pot    :    130.20s CPU    134.14s WALL (    7403 calls)
     h_psi:calbec :     10.21s CPU     10.35s WALL (    7403 calls)
     vloc_psi     :    104.51s CPU    108.25s WALL (    7403 calls)
     add_vuspsi   :     15.43s CPU     15.50s WALL (    7403 calls)

     General routines
     calbec       :     16.11s CPU     16.31s WALL (   10319 calls)
     fft          :      0.18s CPU      0.26s WALL (     987 calls)
     fftw         :    110.10s CPU    114.04s WALL ( 1328532 calls)
     davcio       :      0.00s CPU      0.03s WALL (      72 calls)
 
     Parallel routines
     fft_scatter  :     41.74s CPU     43.64s WALL ( 1329519 calls)
 
     PWSCF        :  5m26.05s CPU     7m 2.22s WALL

 
   This run was terminated on:  17:11:28  13Oct2022            

=------------------------------------------------------------------------------=
   JOB DONE.
=------------------------------------------------------------------------------=
Removing 2304 from /home/shaharpit/tmp
