
     Program PWSCF v.6.1 (svn rev. 13369) starts on 13Oct2022 at 17: 4:20 

     This program is part of the open-source Quantum ESPRESSO suite
     for quantum simulation of materials; please cite
         "P. Giannozzi et al., J. Phys.:Condens. Matter 21 395502 (2009);
          URL http://www.quantum-espresso.org", 
     in publications or presentations arising from this work. More details at
     http://www.quantum-espresso.org/quote

     Parallel version (MPI), running on    16 processors
     R & G space division:  proc/nbgrp/npool/nimage =      16
     Reading input from ./hcp_25.in

     Current dimensions of program PWSCF are:
     Max number of different atomic species (ntypx) = 10
     Max number of k-points (npk) =  40000
     Max angular momentum in pseudopotentials (lmaxx) =  3
               file Gd.rel-pbe-spdn-kjpaw_psl.1.0.0.UPF: wavefunction(s)  5P 5P renormalized
               file H.pbe-kjpaw_psl.0.1.UPF: wavefunction(s)  1S renormalized

     Subspace diagonalization in iterative solution of the eigenvalue problem:
     a serial algorithm will be used

 
     Parallelization info
     --------------------
     sticks:   dense  smooth     PW     G-vecs:    dense   smooth      PW
     Min          80      80     24                 2632     2632     442
     Max          81      81     25                 2637     2637     447
     Sum        1287    1287    397                42147    42147    7103
 


     bravais-lattice index     =            0
     lattice parameter (alat)  =      13.6588  a.u.
     unit-cell volume          =     880.8636 (a.u.)^3
     number of atoms/cell      =            6
     number of atomic types    =            2
     number of electrons       =        46.00
     number of Kohn-Sham states=           56
     kinetic-energy cutoff     =      50.0000  Ry
     charge density cutoff     =     200.0000  Ry
     convergence threshold     =      1.0E-06
     mixing beta               =       0.7000
     number of iterations used =            8  plain     mixing
     Exchange-correlation      =  SLA  PW   PBX  PBC ( 1  4  3  4 0 0)
     nstep                     =          150

     Non magnetic calculation with spin-orbit


     celldm(1)=  13.658752  celldm(2)=   0.000000  celldm(3)=   0.000000
     celldm(4)=   0.000000  celldm(5)=   0.000000  celldm(6)=   0.000000

     crystal axes: (cart. coord. in units of alat)
               a(1) = (   1.000000   0.000000   0.000000 )  
               a(2) = (  -0.250003   0.433017   0.000000 )  
               a(3) = (   0.000000   0.000000   0.798309 )  

     reciprocal axes: (cart. coord. in units 2 pi/alat)
               b(1) = (  1.000000  0.577353  0.000000 )  
               b(2) = (  0.000000  2.309381  0.000000 )  
               b(3) = (  0.000000  0.000000  1.252647 )  


     PseudoPot. # 1 for Gd read from file:
     /home/shaharpit/MeamGdH/dft/qe_potentials/Gd.rel-pbe-spdn-kjpaw_psl.1.0.0.UPF
     MD5 check sum: cf50ec46d1536b4a0251694df1946a53
     Pseudo is Projector augmented-wave + core cor, Zval = 11.0
     Generated using "atomic" code by A. Dal Corso  v.6.2.2
     Shape of augmentation charge: PSQ
     Using radial grid of 1263 points, 10 beta functions with: 
                l(1) =   0
                l(2) =   0
                l(3) =   1
                l(4) =   1
                l(5) =   1
                l(6) =   1
                l(7) =   2
                l(8) =   2
                l(9) =   2
               l(10) =   2
     Q(r) pseudized with 0 coefficients 


     PseudoPot. # 2 for  H read from file:
     /home/shaharpit/MeamGdH/dft/qe_potentials/H.pbe-kjpaw_psl.0.1.UPF
     MD5 check sum: fbb168fef676c0aaadbafd73f5b1efa8
     Pseudo is Projector augmented-wave, Zval =  1.0
     Generated using "atomic" code by A. Dal Corso  v.5.0.2 svn rev. 9415
     Shape of augmentation charge: PSQ
     Using radial grid of  929 points,  2 beta functions with: 
                l(1) =   0
                l(2) =   0
     Q(r) pseudized with 0 coefficients 


     atomic species   valence    mass     pseudopotential
        Gd            11.00   157.25000     Gd( 1.00)
        H              1.00     1.00794      H( 1.00)

     No symmetry found



   Cartesian axes

     site n.     atom                  positions (alat units)
         1           Gd  tau(   1) = (   0.2499738   0.1443244   0.5987320  )
         2           Gd  tau(   2) = (   0.7499738   0.1443244   0.5987320  )
         3           Gd  tau(   3) = (   0.0000227   0.2886921   0.1995773  )
         4           Gd  tau(   4) = (   0.5000227   0.2886921   0.1995773  )
         5           H   tau(   5) = (   0.2603489   0.1351878   0.7734021  )
         6           H   tau(   6) = (   0.7141741   0.1153989   0.7679736  )

     number of k points=    36  gaussian smearing, width (Ry)=  0.0100
                       cart. coord. in units 2pi/alat
        k(    1) = (   0.0000000   0.0000000   0.0000000), wk =   0.0156250
        k(    2) = (   0.0000000   0.0000000   0.3131618), wk =   0.0312500
        k(    3) = (   0.0000000   0.0000000  -0.6263236), wk =   0.0156250
        k(    4) = (   0.0000000   0.5773452   0.0000000), wk =   0.0312500
        k(    5) = (   0.0000000   0.5773452   0.3131618), wk =   0.0312500
        k(    6) = (   0.0000000   0.5773452  -0.6263236), wk =   0.0312500
        k(    7) = (   0.0000000  -1.1546904   0.0000000), wk =   0.0156250
        k(    8) = (   0.0000000  -1.1546904   0.3131618), wk =   0.0312500
        k(    9) = (   0.0000000  -1.1546904  -0.6263236), wk =   0.0156250
        k(   10) = (   0.2500000   0.1443383   0.0000000), wk =   0.0312500
        k(   11) = (   0.2500000   0.1443383   0.3131618), wk =   0.0312500
        k(   12) = (   0.2500000   0.1443383  -0.6263236), wk =   0.0312500
        k(   13) = (   0.2500000   0.7216835   0.0000000), wk =   0.0312500
        k(   14) = (   0.2500000   0.7216835   0.3131618), wk =   0.0312500
        k(   15) = (   0.2500000   0.7216835  -0.6263236), wk =   0.0312500
        k(   16) = (   0.2500000  -1.0103521   0.0000000), wk =   0.0312500
        k(   17) = (   0.2500000  -1.0103521   0.3131618), wk =   0.0312500
        k(   18) = (   0.2500000  -1.0103521  -0.6263236), wk =   0.0312500
        k(   19) = (   0.2500000  -0.4330069   0.0000000), wk =   0.0312500
        k(   20) = (   0.2500000  -0.4330069   0.3131618), wk =   0.0312500
        k(   21) = (   0.2500000  -0.4330069  -0.6263236), wk =   0.0312500
        k(   22) = (  -0.5000000  -0.2886766   0.0000000), wk =   0.0156250
        k(   23) = (  -0.5000000  -0.2886766   0.3131618), wk =   0.0312500
        k(   24) = (  -0.5000000  -0.2886766  -0.6263236), wk =   0.0156250
        k(   25) = (  -0.5000000   0.2886686   0.0000000), wk =   0.0312500
        k(   26) = (  -0.5000000   0.2886686   0.3131618), wk =   0.0312500
        k(   27) = (  -0.5000000   0.2886686  -0.6263236), wk =   0.0312500
        k(   28) = (  -0.5000000  -1.4433670   0.0000000), wk =   0.0156250
        k(   29) = (  -0.5000000  -1.4433670   0.3131618), wk =   0.0312500
        k(   30) = (  -0.5000000  -1.4433670  -0.6263236), wk =   0.0156250
        k(   31) = (   0.0000000  -0.5773452   0.3131618), wk =   0.0312500
        k(   32) = (  -0.2500000  -0.1443383   0.3131618), wk =   0.0312500
        k(   33) = (  -0.2500000  -0.7216835   0.3131618), wk =   0.0312500
        k(   34) = (  -0.2500000   1.0103521   0.3131618), wk =   0.0312500
        k(   35) = (  -0.2500000   0.4330069   0.3131618), wk =   0.0312500
        k(   36) = (   0.5000000  -0.2886686   0.3131618), wk =   0.0312500

     Dense  grid:    42147 G-vectors     FFT dimensions: (  64,  32,  50)

     Estimated max dynamical RAM per process >      32.71MB

     Estimated total allocated dynamical RAM >     523.30MB

     Initial potential from superposition of free atoms

     starting charge   45.92379, renormalised to   46.00000
     Starting wfc are  108 randomized atomic wfcs
     Checking if some PAW data can be deallocated... 

     total cpu time spent up to now is        3.9 secs

     per-process dynamical memory:    90.2 Mb

     Self-consistent Calculation

     iteration #  1     ecut=    50.00 Ry     beta=0.70
     Davidson diagonalization with overlap
     ethr =  1.00E-02,  avg # of iterations =  2.0

     total cpu time spent up to now is        8.5 secs

     total energy              =   -2239.78587153 Ry
     Harris-Foulkes estimate   =   -2240.27429388 Ry
     estimated scf accuracy    <       0.67988880 Ry

     iteration #  2     ecut=    50.00 Ry     beta=0.70
     Davidson diagonalization with overlap
     ethr =  1.48E-03,  avg # of iterations =  4.4

     total cpu time spent up to now is       15.2 secs

     total energy              =   -2239.43793612 Ry
     Harris-Foulkes estimate   =   -2240.62705761 Ry
     estimated scf accuracy    <       3.76561971 Ry

     iteration #  3     ecut=    50.00 Ry     beta=0.70
     Davidson diagonalization with overlap
     ethr =  1.48E-03,  avg # of iterations =  4.0

     total cpu time spent up to now is       21.1 secs

     total energy              =   -2240.03350905 Ry
     Harris-Foulkes estimate   =   -2240.13141397 Ry
     estimated scf accuracy    <       0.32289823 Ry

     iteration #  4     ecut=    50.00 Ry     beta=0.70
     Davidson diagonalization with overlap
     ethr =  7.02E-04,  avg # of iterations =  3.0

     total cpu time spent up to now is       25.9 secs

     total energy              =   -2240.06473424 Ry
     Harris-Foulkes estimate   =   -2240.10284339 Ry
     estimated scf accuracy    <       0.11785705 Ry

     iteration #  5     ecut=    50.00 Ry     beta=0.70
     Davidson diagonalization with overlap
     ethr =  2.56E-04,  avg # of iterations =  2.9

     total cpu time spent up to now is       30.6 secs

     total energy              =   -2240.08068987 Ry
     Harris-Foulkes estimate   =   -2240.08920464 Ry
     estimated scf accuracy    <       0.03248432 Ry

     iteration #  6     ecut=    50.00 Ry     beta=0.70
     Davidson diagonalization with overlap
     ethr =  7.06E-05,  avg # of iterations =  2.4

     total cpu time spent up to now is       35.1 secs

     total energy              =   -2240.08470910 Ry
     Harris-Foulkes estimate   =   -2240.08511045 Ry
     estimated scf accuracy    <       0.00120720 Ry

     iteration #  7     ecut=    50.00 Ry     beta=0.70
     Davidson diagonalization with overlap
     ethr =  2.62E-06,  avg # of iterations =  6.5

     total cpu time spent up to now is       42.2 secs

     total energy              =   -2240.08496190 Ry
     Harris-Foulkes estimate   =   -2240.08507765 Ry
     estimated scf accuracy    <       0.00025284 Ry

     iteration #  8     ecut=    50.00 Ry     beta=0.70
     Davidson diagonalization with overlap
     ethr =  5.50E-07,  avg # of iterations =  3.5

     total cpu time spent up to now is       47.5 secs

     total energy              =   -2240.08498964 Ry
     Harris-Foulkes estimate   =   -2240.08509427 Ry
     estimated scf accuracy    <       0.00034118 Ry

     iteration #  9     ecut=    50.00 Ry     beta=0.70
     Davidson diagonalization with overlap
     ethr =  5.50E-07,  avg # of iterations =  2.6

     total cpu time spent up to now is       52.1 secs

     total energy              =   -2240.08503406 Ry
     Harris-Foulkes estimate   =   -2240.08504049 Ry
     estimated scf accuracy    <       0.00001523 Ry

     iteration # 10     ecut=    50.00 Ry     beta=0.70
     Davidson diagonalization with overlap
     ethr =  3.31E-08,  avg # of iterations =  3.3

     total cpu time spent up to now is       57.1 secs

     total energy              =   -2240.08503798 Ry
     Harris-Foulkes estimate   =   -2240.08503859 Ry
     estimated scf accuracy    <       0.00000129 Ry

     iteration # 11     ecut=    50.00 Ry     beta=0.70
     Davidson diagonalization with overlap
     ethr =  2.80E-09,  avg # of iterations =  3.0

     total cpu time spent up to now is       62.2 secs

     End of self-consistent calculation

          k = 0.0000 0.0000 0.0000 (  5289 PWs)   bands (ev):

   -33.8086 -33.8086 -33.7282 -33.7282 -33.2424 -33.2424 -33.1729 -33.1729
   -14.5866 -14.5866 -14.5228 -14.5228 -14.3588 -14.3588 -14.1721 -14.1721
   -10.6684 -10.6684 -10.6142 -10.6142 -10.4335 -10.4335 -10.1307 -10.1307
    -9.9579  -9.9579  -9.9438  -9.9438  -9.5388  -9.5388  -9.1790  -9.1790
     4.9599   4.9599   6.6152   6.6152   7.7477   7.7477   9.1636   9.1636
     9.2821   9.2821   9.9629   9.9629  10.2754  10.2754  11.4763  11.4763
    11.8276  11.8276  11.8769  11.8769  12.0898  12.0898  12.2670  12.2670

          k = 0.0000 0.0000 0.3132 (  5279 PWs)   bands (ev):

   -33.8074 -33.8074 -33.7277 -33.7276 -33.2438 -33.2438 -33.1734 -33.1734
   -14.5898 -14.5700 -14.4853 -14.4823 -14.3747 -14.3565 -14.2136 -14.2118
   -10.6823 -10.6507 -10.5600 -10.5561 -10.4302 -10.4094 -10.1728 -10.1008
   -10.0402 -10.0300  -9.9478  -9.9472  -9.5462  -9.5161  -9.1829  -9.1829
     5.4317   5.4399   6.6146   6.6197   7.8050   7.8090   8.7647   8.7735
     9.2170   9.2258   9.5306   9.5399  10.2556  10.2785  11.2618  11.2933
    11.5838  11.5899  11.9331  11.9598  12.1055  12.1170  12.1999  12.2042

          k = 0.0000 0.0000-0.6263 (  5252 PWs)   bands (ev):

   -33.8062 -33.8062 -33.7271 -33.7271 -33.2453 -33.2453 -33.1740 -33.1740
   -14.5770 -14.5770 -14.4161 -14.4161 -14.3771 -14.3771 -14.2735 -14.2735
   -10.6731 -10.6731 -10.4587 -10.4587 -10.4074 -10.4074 -10.1823 -10.1823
   -10.1141 -10.1141  -9.9448  -9.9448  -9.5221  -9.5221  -9.1868  -9.1868
     6.2946   6.2946   6.6508   6.6508   7.4664   7.4664   8.1143   8.1143
     8.8299   8.8299   9.6363   9.6363  10.3324  10.3324  11.2957  11.2957
    11.4938  11.4938  11.8930  11.8930  12.0512  12.0512  12.2825  12.2826

          k = 0.0000 0.5773 0.0000 (  5253 PWs)   bands (ev):

   -33.7918 -33.7918 -33.7219 -33.7219 -33.2280 -33.2278 -33.1677 -33.1676
   -14.5956 -14.5836 -14.5430 -14.5214 -14.3605 -14.3580 -14.2643 -14.2500
   -10.6912 -10.6662 -10.6311 -10.5951 -10.3773 -10.3705 -10.2296 -10.2097
   -10.1740 -10.1434 -10.0369 -10.0279  -9.5895  -9.5682  -9.3760  -9.3731
     5.8474   5.9089   6.6513   6.7390   8.4743   8.6408   9.5217   9.5351
     9.6650   9.7873  10.0628  10.0799  10.2138  10.2949  10.5682  10.6601
    11.2248  11.2866  11.5693  11.6040  11.7899  11.8296  12.1922  12.2727

          k = 0.0000 0.5773 0.3132 (  5250 PWs)   bands (ev):

   -33.7912 -33.7912 -33.7214 -33.7214 -33.2287 -33.2285 -33.1681 -33.1680
   -14.5910 -14.5763 -14.5271 -14.5019 -14.3730 -14.3636 -14.2855 -14.2701
   -10.6993 -10.6447 -10.6090 -10.5738 -10.3772 -10.3463 -10.2494 -10.2356
   -10.1727 -10.1540 -10.0805 -10.0283  -9.5791  -9.5459  -9.3795  -9.3670
     6.0831   6.1342   6.7097   6.7726   8.5834   8.7451   9.2750   9.3366
     9.5883   9.6487   9.9018  10.0307  10.4003  10.4995  10.5226  10.5367
    10.9643  11.0492  11.1835  11.2083  11.4889  11.5687  12.1614  12.2079

          k = 0.0000 0.5773-0.6263 (  5272 PWs)   bands (ev):

   -33.7906 -33.7906 -33.7210 -33.7210 -33.2295 -33.2293 -33.1686 -33.1684
   -14.5884 -14.5684 -14.4925 -14.4786 -14.3830 -14.3769 -14.3077 -14.3044
   -10.7198 -10.6162 -10.5609 -10.5384 -10.3755 -10.3446 -10.2796 -10.2544
   -10.1900 -10.1690 -10.0805 -10.0651  -9.5788  -9.5229  -9.3667  -9.3643
     6.5586   6.5655   6.7605   6.7823   8.2905   8.3172   8.9861   9.0467
     9.3820   9.4356   9.9491  10.1080  10.5724  10.5854  10.6451  10.7169
    10.9754  11.0736  11.1061  11.1704  11.4380  11.5054  11.5989  11.6332

          k = 0.0000-1.1547 0.0000 (  5284 PWs)   bands (ev):

   -33.7783 -33.7783 -33.7122 -33.7122 -33.2162 -33.2162 -33.1595 -33.1595
   -14.5972 -14.5972 -14.5446 -14.5446 -14.3829 -14.3829 -14.3277 -14.3277
   -10.6870 -10.6870 -10.6072 -10.6072 -10.4489 -10.4489 -10.4195 -10.4195
   -10.1458 -10.1458 -10.1039 -10.1039  -9.5874  -9.5874  -9.5082  -9.5082
     6.5587   6.5587   6.6893   6.6893   9.0988   9.0988   9.2184   9.2184
     9.2451   9.2451   9.3812   9.3812   9.9753   9.9753  10.0827  10.0827
    11.4850  11.4850  11.6746  11.6746  11.8191  11.8191  11.8997  11.8997

          k = 0.0000-1.1547 0.3132 (  5252 PWs)   bands (ev):

   -33.7782 -33.7782 -33.7120 -33.7120 -33.2164 -33.2164 -33.1596 -33.1596
   -14.6028 -14.5978 -14.5476 -14.5362 -14.3971 -14.3857 -14.3317 -14.3264
   -10.7069 -10.6987 -10.6320 -10.6125 -10.4379 -10.4318 -10.4001 -10.3951
   -10.1695 -10.1650 -10.0915 -10.0761  -9.5826  -9.5690  -9.5032  -9.4899
     6.5463   6.5574   6.6523   6.6579   8.8880   8.9137   9.0213   9.0426
     9.2770   9.2946   9.3291   9.3438  10.2556  10.2701  10.2899  10.3004
    11.3054  11.3228  11.4699  11.4825  12.1961  12.1996  12.2397  12.2572

          k = 0.0000-1.1547-0.6263 (  5272 PWs)   bands (ev):

   -33.7780 -33.7780 -33.7118 -33.7118 -33.2166 -33.2166 -33.1597 -33.1597
   -14.6015 -14.6015 -14.5434 -14.5434 -14.3950 -14.3950 -14.3333 -14.3333
   -10.7110 -10.7110 -10.6424 -10.6424 -10.4261 -10.4261 -10.3816 -10.3816
   -10.1421 -10.1421 -10.1028 -10.1028  -9.5594  -9.5594  -9.4888  -9.4888
     6.5724   6.5724   6.6533   6.6533   8.5389   8.5389   8.5998   8.5998
     9.5349   9.5349   9.6070   9.6070  10.3505  10.3505  10.4202  10.4202
    11.5489  11.5489  11.7037  11.7037  12.2726  12.2726  12.2970  12.2970

          k = 0.2500 0.1443 0.0000 (  5279 PWs)   bands (ev):

   -33.8052 -33.8051 -33.7317 -33.7317 -33.2395 -33.2394 -33.1760 -33.1759
   -14.5869 -14.5790 -14.5277 -14.5200 -14.3352 -14.3332 -14.1965 -14.1946
   -10.6834 -10.6680 -10.6184 -10.6155 -10.3777 -10.3472 -10.1147 -10.1007
   -10.0272 -10.0203  -9.9699  -9.9655  -9.4981  -9.4932  -9.2401  -9.2377
     5.2136   5.2516   6.4124   6.4546   7.9671   8.0693   9.0107   9.0621
     9.5082   9.5277  10.0766  10.1442  10.3601  10.3936  11.2749  11.2974
    11.5057  11.5186  11.9154  11.9260  12.0239  12.0364  12.2016  12.2134

          k = 0.2500 0.1443 0.3132 (  5261 PWs)   bands (ev):

   -33.8041 -33.8041 -33.7309 -33.7309 -33.2407 -33.2406 -33.1767 -33.1766
   -14.5798 -14.5542 -14.4967 -14.4864 -14.3570 -14.3427 -14.2318 -14.2280
   -10.6528 -10.6476 -10.5790 -10.5602 -10.3881 -10.3443 -10.1638 -10.0999
   -10.0740 -10.0568  -9.9942  -9.9823  -9.4990  -9.4709  -9.2439  -9.2421
     5.6168   5.6507   6.5636   6.5954   8.0629   8.1604   8.7731   8.8263
     9.2602   9.2678   9.5665   9.5778  10.3813  10.4172  11.0927  11.1022
    11.4144  11.4164  11.6339  11.6397  11.9909  12.0352  12.2758  12.2832

          k = 0.2500 0.1443-0.6263 (  5254 PWs)   bands (ev):

   -33.8031 -33.8031 -33.7302 -33.7302 -33.2420 -33.2419 -33.1774 -33.1773
   -14.5594 -14.5535 -14.4400 -14.4316 -14.3670 -14.3649 -14.2822 -14.2816
   -10.6474 -10.6335 -10.4856 -10.4780 -10.3736 -10.3613 -10.1960 -10.1891
   -10.1228 -10.1037  -9.9939  -9.9901  -9.4828  -9.4788  -9.2421  -9.2413
     6.3987   6.4024   6.6700   6.6817   7.7290   7.7635   8.3047   8.3477
     8.8314   8.8578   9.5985   9.6742  10.3873  10.4000  10.9795  10.9894
    11.3779  11.3875  11.7776  11.8011  11.9177  11.9407  12.0412  12.0730

          k = 0.2500 0.7217 0.0000 (  5270 PWs)   bands (ev):

   -33.7899 -33.7899 -33.7239 -33.7239 -33.2263 -33.2261 -33.1694 -33.1693
   -14.5947 -14.5803 -14.5427 -14.5240 -14.3398 -14.3350 -14.2869 -14.2736
   -10.6992 -10.6696 -10.6357 -10.5947 -10.3254 -10.3133 -10.2910 -10.2679
   -10.1349 -10.0993 -10.0844 -10.0525  -9.5122  -9.5040  -9.4431  -9.4343
     6.2015   6.2420   6.3715   6.4183   8.8680   8.9454   9.0578   9.1431
     9.8320   9.8424   9.9610   9.9771  10.2431  10.2775  10.3379  10.3810
    11.3208  11.3947  11.6430  11.6748  11.7286  11.7781  11.9287  12.0021

          k = 0.2500 0.7217 0.3132 (  5250 PWs)   bands (ev):

   -33.7894 -33.7894 -33.7233 -33.7233 -33.2269 -33.2267 -33.1700 -33.1698
   -14.5837 -14.5712 -14.5277 -14.5117 -14.3556 -14.3515 -14.2986 -14.2894
   -10.6821 -10.6611 -10.6142 -10.5778 -10.3265 -10.3159 -10.2935 -10.2792
   -10.1441 -10.1273 -10.0868 -10.0725  -9.5053  -9.4925  -9.4378  -9.4257
     6.3336   6.3691   6.5166   6.5474   8.8676   8.9393   9.0616   9.1907
     9.6098   9.6572   9.6892   9.7240  10.3231  10.3749  10.6235  10.6586
    10.9855  11.0321  11.0921  11.1338  11.8024  11.8491  11.9218  11.9521

          k = 0.2500 0.7217-0.6263 (  5252 PWs)   bands (ev):

   -33.7889 -33.7889 -33.7227 -33.7227 -33.2275 -33.2273 -33.1706 -33.1704
   -14.5685 -14.5551 -14.5114 -14.4952 -14.3757 -14.3703 -14.3151 -14.3100
   -10.6677 -10.6338 -10.5918 -10.5518 -10.3360 -10.3300 -10.3189 -10.2829
   -10.1454 -10.1371 -10.1119 -10.0955  -9.4965  -9.4783  -9.4330  -9.4153
     6.5712   6.5827   6.7349   6.7484   8.6603   8.6905   8.7314   8.7559
     9.5348   9.5847   9.7614   9.8166  10.4691  10.5102  10.6110  10.6295
    11.0836  11.1271  11.1632  11.1845  11.3691  11.3923  11.4314  11.4477

          k = 0.2500-1.0104 0.0000 (  5254 PWs)   bands (ev):

   -33.7783 -33.7783 -33.7122 -33.7122 -33.2162 -33.2162 -33.1595 -33.1595
   -14.5970 -14.5967 -14.5441 -14.5434 -14.3812 -14.3802 -14.3268 -14.3262
   -10.6832 -10.6809 -10.6086 -10.6051 -10.4343 -10.4173 -10.3980 -10.3752
   -10.1816 -10.1747 -10.1254 -10.1214  -9.6019  -9.5894  -9.5348  -9.5243
     6.5748   6.5832   6.7129   6.7186   9.2440   9.2790   9.3914   9.4171
     9.4852   9.5129   9.5386   9.5579  10.0430  10.0907  10.1442  10.1814
    11.2941  11.3241  11.4966  11.5518  11.7423  11.7776  11.9112  11.9216

          k = 0.2500-1.0104 0.3132 (  5260 PWs)   bands (ev):

   -33.7782 -33.7782 -33.7120 -33.7120 -33.2164 -33.2164 -33.1596 -33.1596
   -14.6010 -14.5960 -14.5475 -14.5366 -14.3940 -14.3833 -14.3314 -14.3263
   -10.7059 -10.7035 -10.6137 -10.6065 -10.4191 -10.4094 -10.3714 -10.3673
   -10.1961 -10.1802 -10.1318 -10.1009  -9.5951  -9.5677  -9.5293  -9.5050
     6.5865   6.5981   6.7029   6.7122   8.9885   9.0220   9.1902   9.2261
     9.5219   9.5308   9.5605   9.5739  10.4638  10.4985  10.5292  10.5571
    10.9224  10.9617  11.1575  11.1931  11.8485  11.8531  11.9674  11.9986

          k = 0.2500-1.0104-0.6263 (  5260 PWs)   bands (ev):

   -33.7780 -33.7780 -33.7118 -33.7118 -33.2166 -33.2166 -33.1597 -33.1597
   -14.6007 -14.6003 -14.5412 -14.5401 -14.3952 -14.3935 -14.3332 -14.3323
   -10.7265 -10.7060 -10.6361 -10.6050 -10.4079 -10.4058 -10.3688 -10.3506
   -10.1761 -10.1729 -10.1303 -10.1202  -9.5829  -9.5577  -9.5116  -9.4914
     6.6125   6.6282   6.6820   6.6977   8.7982   8.8067   8.8619   8.8685
     9.7478   9.7969   9.8481   9.9008  10.4773  10.5098  10.5424  10.5667
    11.2539  11.3030  11.3621  11.4008  11.6020  11.6234  11.6547  11.6650

          k = 0.2500-0.4330 0.0000 (  5251 PWs)   bands (ev):

   -33.7937 -33.7937 -33.7200 -33.7200 -33.2296 -33.2294 -33.1661 -33.1660
   -14.5961 -14.5859 -14.5425 -14.5204 -14.3759 -14.3737 -14.2471 -14.2337
   -10.6857 -10.6615 -10.6290 -10.5915 -10.4103 -10.3716 -10.2505 -10.2255
   -10.1603 -10.1107 -10.0392 -10.0026  -9.6303  -9.6073  -9.3447  -9.3373
     5.6651   5.7271   6.7637   6.8686   8.3633   8.5354   9.4351   9.4505
     9.9428  10.0987  10.1564  10.2052  10.2833  10.3299  10.7512  10.7743
    11.1942  11.2835  11.4326  11.4740  11.8308  11.8868  12.1368  12.1704

          k = 0.2500-0.4330 0.3132 (  5259 PWs)   bands (ev):

   -33.7930 -33.7929 -33.7197 -33.7197 -33.2305 -33.2303 -33.1664 -33.1663
   -14.5969 -14.5808 -14.5177 -14.4960 -14.3819 -14.3760 -14.2737 -14.2637
   -10.7141 -10.6348 -10.5972 -10.5642 -10.3980 -10.3448 -10.2694 -10.2251
   -10.1778 -10.1434 -10.0700 -10.0306  -9.6217  -9.5825  -9.3405  -9.3301
     6.0419   6.0834   6.7630   6.8253   8.3829   8.5359   9.2757   9.3362
     9.6358   9.6731  10.0494  10.1018  10.1619  10.2858  10.9174  10.9624
    11.0049  11.1487  11.2212  11.2435  11.4444  11.5820  12.1492  12.2410

          k = 0.2500-0.4330-0.6263 (  5266 PWs)   bands (ev):

   -33.7923 -33.7923 -33.7193 -33.7193 -33.2313 -33.2311 -33.1667 -33.1666
   -14.6019 -14.5790 -14.4792 -14.4653 -14.3899 -14.3822 -14.3023 -14.2988
   -10.7485 -10.6129 -10.5433 -10.5208 -10.3984 -10.3463 -10.2657 -10.2397
   -10.1998 -10.1917 -10.0685 -10.0490  -9.6226  -9.5519  -9.3389  -9.3295
     6.5494   6.5601   6.7632   6.7806   8.1654   8.2044   8.8968   8.9839
     9.5833   9.6276  10.0884  10.2260  10.4327  10.5269  10.6505  10.6784
    10.8204  10.9473  11.2826  11.4449  11.4855  11.5467  11.5809  11.6325

          k =-0.5000-0.2887 0.0000 (  5254 PWs)   bands (ev):

   -33.8014 -33.8014 -33.7355 -33.7355 -33.2362 -33.2362 -33.1792 -33.1792
   -14.5796 -14.5796 -14.5246 -14.5246 -14.2942 -14.2942 -14.2344 -14.2344
   -10.6808 -10.6808 -10.6202 -10.6202 -10.2282 -10.2282 -10.1603 -10.1603
   -10.0660 -10.0660 -10.0045 -10.0045  -9.4022  -9.4022  -9.3491  -9.3491
     5.7902   5.7902   5.9595   5.9595   8.5041   8.5041   8.6961   8.6961
    10.0994  10.0994  10.2251  10.2251  10.4613  10.4613  10.6325  10.6325
    11.4781  11.4781  11.7362  11.7362  12.0954  12.0954  12.1764  12.1764

          k =-0.5000-0.2887 0.3132 (  5256 PWs)   bands (ev):

   -33.8006 -33.8006 -33.7346 -33.7346 -33.2372 -33.2372 -33.1802 -33.1802
   -14.5616 -14.5492 -14.5011 -14.4974 -14.3237 -14.3155 -14.2658 -14.2550
   -10.6495 -10.6301 -10.5859 -10.5734 -10.2632 -10.2371 -10.1909 -10.1763
   -10.1175 -10.0659 -10.0536 -10.0122  -9.4026  -9.3910  -9.3526  -9.3400
     6.0498   6.0731   6.2666   6.2878   8.4493   8.5722   8.7444   8.8970
     9.3819   9.3985   9.4954   9.5344  10.6190  10.6954  10.8147  10.8624
    11.0055  11.0182  11.3193  11.3565  12.0296  12.0730  12.1910  12.2336

          k =-0.5000-0.2887-0.6263 (  5256 PWs)   bands (ev):

   -33.7997 -33.7997 -33.7336 -33.7336 -33.2382 -33.2382 -33.1812 -33.1812
   -14.5250 -14.5250 -14.4660 -14.4660 -14.3522 -14.3522 -14.2932 -14.2932
   -10.5873 -10.5873 -10.5278 -10.5278 -10.2953 -10.2953 -10.2277 -10.2277
   -10.1081 -10.1081 -10.0484 -10.0484  -9.3916  -9.3916  -9.3446  -9.3446
     6.4916   6.4916   6.7103   6.7103   8.2677   8.2677   8.4047   8.4047
     9.0533   9.0533   9.3746   9.3746  10.5210  10.5210  10.6195  10.6195
    11.3206  11.3206  11.4568  11.4568  11.6162  11.6162  11.6784  11.6784

          k =-0.5000 0.2887 0.0000 (  5253 PWs)   bands (ev):

   -33.7918 -33.7918 -33.7219 -33.7219 -33.2280 -33.2278 -33.1677 -33.1676
   -14.5958 -14.5819 -14.5430 -14.5224 -14.3626 -14.3585 -14.2620 -14.2500
   -10.6914 -10.6667 -10.6302 -10.5943 -10.3761 -10.3693 -10.2303 -10.2123
   -10.1772 -10.1454 -10.0357 -10.0239  -9.5884  -9.5670  -9.3781  -9.3733
     5.8404   5.9002   6.6398   6.7312   8.5220   8.6888   9.4857   9.5178
     9.6896   9.7916  10.1348  10.1574  10.2155  10.2904  10.4968  10.5757
    11.1733  11.2330  11.6467  11.6793  11.8663  11.9213  12.1046  12.1534

          k =-0.5000 0.2887 0.3132 (  5250 PWs)   bands (ev):

   -33.7912 -33.7912 -33.7214 -33.7214 -33.2287 -33.2285 -33.1681 -33.1680
   -14.5927 -14.5761 -14.5211 -14.5076 -14.3719 -14.3624 -14.2800 -14.2765
   -10.7008 -10.6538 -10.6056 -10.5735 -10.3755 -10.3401 -10.2455 -10.2263
   -10.1863 -10.1463 -10.0714 -10.0425  -9.5818  -9.5516  -9.3753  -9.3654
     6.1382   6.1721   6.6474   6.6995   8.6009   8.7368   9.2962   9.3247
     9.4864   9.5484   9.8451   9.9647  10.3554  10.4767  10.8192  10.8745
    10.9743  11.0509  11.1229  11.1349  11.4975  11.5813  12.1445  12.2097

          k =-0.5000 0.2887-0.6263 (  5272 PWs)   bands (ev):

   -33.7906 -33.7906 -33.7210 -33.7210 -33.2295 -33.2293 -33.1686 -33.1684
   -14.5883 -14.5692 -14.4920 -14.4784 -14.3835 -14.3767 -14.3074 -14.3045
   -10.7191 -10.6178 -10.5602 -10.5390 -10.3722 -10.3455 -10.2806 -10.2549
   -10.1903 -10.1683 -10.0810 -10.0649  -9.5779  -9.5220  -9.3680  -9.3653
     6.5677   6.5750   6.7301   6.7497   8.3037   8.3336   9.0140   9.0743
     9.3754   9.4295  10.0247  10.1878  10.5404  10.5533  10.6396  10.6888
    10.9493  11.0679  11.1081  11.1960  11.3927  11.4562  11.6109  11.6486

          k =-0.5000-1.4434 0.0000 (  5252 PWs)   bands (ev):

   -33.7783 -33.7783 -33.7122 -33.7122 -33.2162 -33.2162 -33.1595 -33.1595
   -14.5966 -14.5966 -14.5429 -14.5429 -14.3785 -14.3785 -14.3253 -14.3253
   -10.6758 -10.6758 -10.6077 -10.6077 -10.3991 -10.3991 -10.3410 -10.3410
   -10.2225 -10.2225 -10.1470 -10.1470  -9.6026  -9.6026  -9.5526  -9.5526
     6.5981   6.5981   6.7427   6.7427   9.4823   9.4823   9.6155   9.6155
     9.6879   9.6879   9.8169   9.8169  10.1918  10.1918  10.2834  10.2834
    11.0757  11.0757  11.2807  11.2807  11.8052  11.8052  11.9552  11.9552

          k =-0.5000-1.4434 0.3132 (  5244 PWs)   bands (ev):

   -33.7782 -33.7782 -33.7120 -33.7120 -33.2164 -33.2164 -33.1596 -33.1596
   -14.6005 -14.5949 -14.5470 -14.5345 -14.3926 -14.3794 -14.3322 -14.3256
   -10.7076 -10.6921 -10.6197 -10.5882 -10.3954 -10.3827 -10.3377 -10.3098
   -10.2456 -10.2160 -10.1661 -10.1344  -9.6000  -9.5773  -9.5461  -9.5253
     6.6214   6.6387   6.7255   6.7433   9.2685   9.3297   9.3911   9.4471
     9.8915   9.9371  10.0260  10.0645  10.3316  10.3564  10.4692  10.4995
    10.9906  11.0282  11.0881  11.1045  11.4693  11.4823  11.5449  11.5531

          k =-0.5000-1.4434-0.6263 (  5288 PWs)   bands (ev):

   -33.7780 -33.7780 -33.7118 -33.7118 -33.2166 -33.2166 -33.1597 -33.1597
   -14.5995 -14.5995 -14.5379 -14.5379 -14.3938 -14.3938 -14.3322 -14.3322
   -10.7218 -10.7218 -10.5979 -10.5979 -10.3847 -10.3847 -10.3255 -10.3255
   -10.2181 -10.2181 -10.1520 -10.1520  -9.5850  -9.5850  -9.5108  -9.5108
     6.6702   6.6702   6.7259   6.7259   9.1789   9.1789   9.2636   9.2636
    10.0559  10.0559  10.3016  10.3016  10.5135  10.5135  10.6418  10.6418
    10.9265  10.9265  11.0383  11.0383  11.1355  11.1355  11.2499  11.2499

          k = 0.0000-0.5773 0.3132 (  5250 PWs)   bands (ev):

   -33.7912 -33.7912 -33.7214 -33.7214 -33.2287 -33.2285 -33.1682 -33.1680
   -14.5916 -14.5742 -14.5190 -14.5044 -14.3721 -14.3636 -14.2836 -14.2793
   -10.7000 -10.6483 -10.6034 -10.5660 -10.3770 -10.3431 -10.2535 -10.2268
   -10.1877 -10.1481 -10.0763 -10.0498  -9.5818  -9.5504  -9.3713  -9.3610
     6.1977   6.2258   6.6867   6.7380   8.4376   8.5491   9.2912   9.3100
     9.4521   9.5208   9.8279   9.9579  10.3785  10.4987  10.8738  10.9310
    10.9587  11.0504  11.2260  11.2565  11.4868  11.5683  12.1527  12.2220

          k =-0.2500-0.1443 0.3132 (  5261 PWs)   bands (ev):

   -33.8041 -33.8041 -33.7310 -33.7310 -33.2407 -33.2406 -33.1767 -33.1766
   -14.5745 -14.5659 -14.4940 -14.4850 -14.3534 -14.3377 -14.2358 -14.2304
   -10.6810 -10.6345 -10.5681 -10.5641 -10.3597 -10.3583 -10.1438 -10.1105
   -10.0732 -10.0621 -10.0032  -9.9819  -9.5019  -9.4818  -9.2396  -9.2351
     5.6881   5.7115   6.4617   6.4882   8.0106   8.1078   8.9230   8.9685
     9.2340   9.2857   9.4111   9.4402  10.4799  10.5182  11.0645  11.0792
    11.3614  11.3989  11.6458  11.6802  12.2041  12.2439  12.2803  12.2857

          k =-0.2500-0.7217 0.3132 (  5250 PWs)   bands (ev):

   -33.7894 -33.7894 -33.7233 -33.7233 -33.2269 -33.2267 -33.1700 -33.1699
   -14.5818 -14.5673 -14.5265 -14.5101 -14.3574 -14.3539 -14.3013 -14.2904
   -10.6795 -10.6562 -10.6119 -10.5709 -10.3282 -10.3213 -10.2973 -10.2815
   -10.1488 -10.1318 -10.0924 -10.0737  -9.5026  -9.4888  -9.4365  -9.4236
     6.3804   6.4068   6.5560   6.5892   8.7074   8.7824   9.0004   9.1295
     9.6389   9.6798   9.6937   9.7285  10.3441  10.4104  10.6443  10.6840
    11.0673  11.1193  11.1581  11.2086  11.7479  11.7991  11.8641  11.9622

          k =-0.2500 1.0104 0.3132 (  5260 PWs)   bands (ev):

   -33.7782 -33.7782 -33.7120 -33.7120 -33.2164 -33.2164 -33.1596 -33.1596
   -14.6023 -14.5967 -14.5471 -14.5341 -14.3958 -14.3819 -14.3324 -14.3257
   -10.7109 -10.6781 -10.6472 -10.5926 -10.4172 -10.4092 -10.3708 -10.3652
   -10.1998 -10.1947 -10.1166 -10.1051  -9.5882  -9.5806  -9.5179  -9.5093
     6.5747   6.5991   6.6726   6.6955   9.1621   9.1788   9.2513   9.2772
     9.5425   9.5527   9.5942   9.6041  10.1993  10.2166  10.2923  10.3088
    11.2105  11.2622  11.5058  11.5815  11.7726  11.8461  11.9189  11.9574

          k =-0.2500 0.4330 0.3132 (  5259 PWs)   bands (ev):

   -33.7930 -33.7930 -33.7197 -33.7197 -33.2304 -33.2302 -33.1664 -33.1663
   -14.5983 -14.5818 -14.5204 -14.4991 -14.3818 -14.3745 -14.2704 -14.2611
   -10.7147 -10.6403 -10.6001 -10.5701 -10.3981 -10.3455 -10.2636 -10.2221
   -10.1738 -10.1404 -10.0630 -10.0256  -9.6222  -9.5840  -9.3435  -9.3345
     5.9813   6.0271   6.7626   6.8237   8.4688   8.6321   9.3218   9.3688
     9.6603   9.6862  10.0601  10.1041  10.1553  10.2781  10.8320  10.8673
    11.0030  11.1024  11.1340  11.1700  11.4421  11.5695  12.2042  12.2740

          k = 0.5000-0.2887 0.3132 (  5250 PWs)   bands (ev):

   -33.7912 -33.7912 -33.7214 -33.7214 -33.2287 -33.2285 -33.1682 -33.1680
   -14.5889 -14.5740 -14.5252 -14.5000 -14.3741 -14.3665 -14.2875 -14.2718
   -10.6975 -10.6388 -10.6066 -10.5682 -10.3762 -10.3474 -10.2559 -10.2404
   -10.1764 -10.1570 -10.0880 -10.0302  -9.5766  -9.5430  -9.3783  -9.3641
     6.1387   6.1851   6.7007   6.7665   8.5411   8.6986   9.2365   9.3042
     9.4981   9.5764   9.9397  10.0667  10.4013  10.5274  10.5787  10.6170
    11.0327  11.1017  11.2413  11.2670  11.5042  11.5834  12.0819  12.1450

     the Fermi energy is    10.4943 ev

!    total energy              =   -2240.08503825 Ry
     Harris-Foulkes estimate   =   -2240.08503841 Ry
     estimated scf accuracy    <       0.00000020 Ry

     total all-electron energy =    -90244.428441 Ry

     The total energy is the sum of the following terms:

     one-electron contribution =     -51.33246419 Ry
     hartree contribution      =      45.02573668 Ry
     xc contribution           =    -253.38091786 Ry
     ewald contribution        =    -232.31225637 Ry
     one-center paw contrib.   =   -1748.08098353 Ry
     smearing contrib. (-TS)   =      -0.00415299 Ry

     convergence has been achieved in  11 iterations

     Forces acting on atoms (cartesian axes, Ry/au):

     atom    1 type  1   force =    -0.04172647    0.03872663   -0.76999910
     atom    2 type  1   force =     0.15375745    0.12201433   -0.74198241
     atom    3 type  1   force =     0.00097105    0.00258119   -0.01600445
     atom    4 type  1   force =    -0.00417238   -0.00372718   -0.03386117
     atom    5 type  2   force =     0.04038228   -0.03936293    0.79330710
     atom    6 type  2   force =    -0.14921192   -0.12023203    0.76854003

     Total force =     1.564141     Total SCF correction =     0.001403


     Computing stress (Cartesian axis) and pressure

     Message from routine stres:
     noncollinear stress + GGA not implemented

     BFGS Geometry Optimization

     number of scf cycles    =   1
     number of bfgs steps    =   0

     enthalpy new            =   -2240.0850382549 Ry

     new trust radius        =       0.5000000000 bohr
     new conv_thr            =       0.0000010000 Ry

     new unit-cell volume =    880.86361 a.u.^3 (   130.53052 Ang^3 )
     density =      8.02744 g/cm^3

CELL_PARAMETERS (angstrom)
   7.227900000   0.000000000   0.000000000
  -1.807000000   3.129800000   0.000000000
   0.000000000   0.000000000   5.770100000

ATOMIC_POSITIONS (crystal)
Gd       0.332408549   0.337416502   0.705604173
Gd       0.843619632   0.346269688   0.707219531
Gd       0.166813289   0.666974371   0.249077232
Gd       0.666408905   0.666303814   0.248047667
H        0.339212670   0.308015861   1.014539695
H        0.770736954   0.253719764   1.006311701



     Writing output data file 2307.save
     NEW-OLD atomic charge density approx. for the potential

     total cpu time spent up to now is       66.1 secs

     per-process dynamical memory:   125.9 Mb

     Self-consistent Calculation

     iteration #  1     ecut=    50.00 Ry     beta=0.70
     Davidson diagonalization with overlap
     c_bands:  2 eigenvalues not converged
     c_bands:  2 eigenvalues not converged
     c_bands:  1 eigenvalues not converged
     c_bands:  1 eigenvalues not converged
     c_bands:  1 eigenvalues not converged
     c_bands:  2 eigenvalues not converged
     c_bands:  1 eigenvalues not converged
     ethr =  1.00E-06,  avg # of iterations = 14.9

     total cpu time spent up to now is       81.2 secs

     total energy              =   -2240.62569379 Ry
     Harris-Foulkes estimate   =   -2241.25367039 Ry
     estimated scf accuracy    <       0.30432875 Ry

     iteration #  2     ecut=    50.00 Ry     beta=0.70
     Davidson diagonalization with overlap
     ethr =  6.62E-04,  avg # of iterations =  4.5

     total cpu time spent up to now is       88.0 secs

     total energy              =   -2240.49065811 Ry
     Harris-Foulkes estimate   =   -2241.13440864 Ry
     estimated scf accuracy    <       2.18982924 Ry

     iteration #  3     ecut=    50.00 Ry     beta=0.70
     Davidson diagonalization with overlap
     ethr =  6.62E-04,  avg # of iterations =  4.3

     total cpu time spent up to now is       94.2 secs

     total energy              =   -2240.77482041 Ry
     Harris-Foulkes estimate   =   -2240.80040032 Ry
     estimated scf accuracy    <       0.06140113 Ry

     iteration #  4     ecut=    50.00 Ry     beta=0.70
     Davidson diagonalization with overlap
     ethr =  1.33E-04,  avg # of iterations =  3.4

     total cpu time spent up to now is       99.3 secs

     total energy              =   -2240.78745427 Ry
     Harris-Foulkes estimate   =   -2240.79230582 Ry
     estimated scf accuracy    <       0.01305828 Ry

     iteration #  5     ecut=    50.00 Ry     beta=0.70
     Davidson diagonalization with overlap
     ethr =  2.84E-05,  avg # of iterations =  3.1

     total cpu time spent up to now is      104.1 secs

     total energy              =   -2240.78893511 Ry
     Harris-Foulkes estimate   =   -2240.78993779 Ry
     estimated scf accuracy    <       0.00239724 Ry

     iteration #  6     ecut=    50.00 Ry     beta=0.70
     Davidson diagonalization with overlap
     ethr =  5.21E-06,  avg # of iterations =  4.7

     total cpu time spent up to now is      109.9 secs

     total energy              =   -2240.78933472 Ry
     Harris-Foulkes estimate   =   -2240.78996012 Ry
     estimated scf accuracy    <       0.00251097 Ry

     iteration #  7     ecut=    50.00 Ry     beta=0.70
     Davidson diagonalization with overlap
     ethr =  5.21E-06,  avg # of iterations =  3.1

     total cpu time spent up to now is      114.5 secs

     total energy              =   -2240.78960244 Ry
     Harris-Foulkes estimate   =   -2240.78968599 Ry
     estimated scf accuracy    <       0.00024561 Ry

     iteration #  8     ecut=    50.00 Ry     beta=0.70
     Davidson diagonalization with overlap
     ethr =  5.34E-07,  avg # of iterations =  3.2

     total cpu time spent up to now is      119.3 secs

     total energy              =   -2240.78964948 Ry
     Harris-Foulkes estimate   =   -2240.78966107 Ry
     estimated scf accuracy    <       0.00003603 Ry

     iteration #  9     ecut=    50.00 Ry     beta=0.70
     Davidson diagonalization with overlap
     ethr =  7.83E-08,  avg # of iterations =  2.6

     total cpu time spent up to now is      123.9 secs

     total energy              =   -2240.78965566 Ry
     Harris-Foulkes estimate   =   -2240.78965609 Ry
     estimated scf accuracy    <       0.00000109 Ry

     iteration # 10     ecut=    50.00 Ry     beta=0.70
     Davidson diagonalization with overlap
     ethr =  2.38E-09,  avg # of iterations =  3.5

     total cpu time spent up to now is      129.3 secs

     End of self-consistent calculation

          k = 0.0000 0.0000 0.0000 (  5289 PWs)   bands (ev):

   -33.5532 -33.5532 -33.4433 -33.4433 -33.1435 -33.1435 -33.0854 -33.0854
   -14.3341 -14.3341 -14.2149 -14.2149 -13.9959 -13.9959 -13.7897 -13.7897
   -10.2460 -10.2460 -10.1988 -10.1988 -10.0346 -10.0346  -9.8665  -9.8665
    -9.7051  -9.7051  -9.5702  -9.5702  -9.4317  -9.4317  -9.3282  -9.3282
     4.3857   4.3857   6.0026   6.0026   7.9342   7.9342   9.1037   9.1037
     9.3650   9.3650  10.1391  10.1391  10.1946  10.1946  11.3011  11.3011
    11.9022  11.9022  12.1103  12.1103  12.3217  12.3217  12.7108  12.7108

          k = 0.0000 0.0000 0.3132 (  5279 PWs)   bands (ev):

   -33.5516 -33.5516 -33.4425 -33.4425 -33.1456 -33.1456 -33.0860 -33.0860
   -14.3341 -14.3277 -14.1911 -14.1905 -14.0049 -13.9973 -13.8145 -13.8138
   -10.2472 -10.2382 -10.1561 -10.1400 -10.0722 -10.0297  -9.8492  -9.7713
    -9.6976  -9.6971  -9.5894  -9.5676  -9.5350  -9.5268  -9.3349  -9.3348
     4.7754   4.7792   6.0104   6.0170   7.8116   7.8126   8.9372   8.9504
     9.2804   9.3110   9.6964   9.6994  10.2849  10.2957  11.3801  11.4005
    11.9737  11.9898  12.1227  12.1365  12.2529  12.2678  12.2976  12.3250

          k = 0.0000 0.0000-0.6263 (  5252 PWs)   bands (ev):

   -33.5500 -33.5500 -33.4417 -33.4417 -33.1477 -33.1477 -33.0865 -33.0865
   -14.3286 -14.3286 -14.1618 -14.1618 -14.0064 -14.0064 -13.8426 -13.8426
   -10.2588 -10.2588 -10.0981 -10.0981  -9.9941  -9.9941  -9.7568  -9.7568
    -9.7060  -9.7060  -9.6861  -9.6861  -9.5644  -9.5644  -9.3416  -9.3416
     5.3401   5.3401   6.0367   6.0367   7.3737   7.3737   8.6068   8.6068
     9.3262   9.3262   9.6753   9.6753  10.2787  10.2787  11.4806  11.4806
    11.7706  11.7706  11.9715  11.9715  12.1345  12.1345  12.2389  12.2389

          k = 0.0000 0.5773 0.0000 (  5253 PWs)   bands (ev):

   -33.5365 -33.5365 -33.4353 -33.4353 -33.1287 -33.1286 -33.0811 -33.0811
   -14.3437 -14.3395 -14.2475 -14.2404 -13.9946 -13.9914 -13.8866 -13.8852
   -10.2319 -10.2037 -10.1898 -10.1416 -10.1003 -10.0290  -9.9171  -9.8951
    -9.8627  -9.7787  -9.6883  -9.6602  -9.6261  -9.5844  -9.4771  -9.4480
     5.2536   5.2593   6.0362   6.1368   8.5918   8.6984   9.5917   9.6286
     9.7221   9.7708   9.9748  10.0174  10.2252  10.2915  10.7933  10.8746
    11.1070  11.1714  11.6631  11.6852  11.7760  11.8385  12.3855  12.4215

          k = 0.0000 0.5773 0.3132 (  5250 PWs)   bands (ev):

   -33.5357 -33.5357 -33.4346 -33.4346 -33.1297 -33.1297 -33.0817 -33.0817
   -14.3418 -14.3347 -14.2364 -14.2306 -14.0027 -13.9959 -13.9001 -13.8992
   -10.2506 -10.1908 -10.1755 -10.1429 -10.1001 -10.0065  -9.9167  -9.9135
    -9.8482  -9.7549  -9.6882  -9.6651  -9.6278  -9.5971  -9.4710  -9.4672
     5.4200   5.4384   6.0984   6.1769   8.5815   8.6627   9.3771   9.4474
     9.8161   9.8725   9.9940  10.0392  10.3880  10.5048  10.6040  10.6296
    10.9124  10.9893  11.4461  11.4693  11.6115  11.6760  12.2237  12.2363

          k = 0.0000 0.5773-0.6263 (  5272 PWs)   bands (ev):

   -33.5348 -33.5348 -33.4340 -33.4339 -33.1308 -33.1308 -33.0822 -33.0822
   -14.3400 -14.3301 -14.2214 -14.2188 -14.0094 -14.0017 -13.9206 -13.9112
   -10.2866 -10.1791 -10.1523 -10.1033 -10.0634  -9.9930  -9.9815  -9.9289
    -9.8310  -9.7165  -9.7024  -9.6680  -9.6407  -9.5777  -9.4978  -9.4809
     5.7132   5.7650   6.1485   6.1953   8.3931   8.4040   9.2543   9.3116
     9.6828   9.7309  10.0084  10.1004  10.4632  10.4681  10.5619  10.5905
    11.0648  11.1402  11.2278  11.3047  11.4782  11.5028  11.8512  11.8856

          k = 0.0000-1.1547 0.0000 (  5284 PWs)   bands (ev):

   -33.5224 -33.5224 -33.4243 -33.4243 -33.1168 -33.1168 -33.0737 -33.0737
   -14.3600 -14.3600 -14.2704 -14.2704 -14.0129 -14.0129 -13.9710 -13.9710
   -10.2412 -10.2412 -10.1978 -10.1978 -10.0640 -10.0640 -10.0239 -10.0239
    -9.8768  -9.8768  -9.8335  -9.8335  -9.5707  -9.5707  -9.5527  -9.5527
     5.9161   5.9161   6.0717   6.0717   9.0638   9.0638   9.0934   9.0934
     9.2276   9.2276   9.5059   9.5059  10.1241  10.1241  10.1981  10.1981
    11.4170  11.4170  11.6074  11.6074  11.9139  11.9139  11.9827  11.9827

          k = 0.0000-1.1547 0.3132 (  5252 PWs)   bands (ev):

   -33.5222 -33.5222 -33.4240 -33.4240 -33.1171 -33.1171 -33.0739 -33.0739
   -14.3621 -14.3592 -14.2718 -14.2677 -14.0211 -14.0165 -13.9769 -13.9731
   -10.2679 -10.2648 -10.2249 -10.2112 -10.1040 -10.0863 -10.0229 -10.0187
    -9.8557  -9.8454  -9.7673  -9.7551  -9.5875  -9.5732  -9.5479  -9.5356
     5.9306   5.9355   6.0609   6.0645   8.9649   8.9762   9.0683   9.0827
     9.2463   9.2678   9.3262   9.3506  10.2271  10.2307  10.2524  10.2570
    11.4938  11.5048  11.6597  11.6688  12.2634  12.2670  12.3099  12.3285

          k = 0.0000-1.1547-0.6263 (  5272 PWs)   bands (ev):

   -33.5219 -33.5219 -33.4237 -33.4237 -33.1174 -33.1174 -33.0742 -33.0742
   -14.3610 -14.3610 -14.2695 -14.2695 -14.0239 -14.0239 -13.9797 -13.9797
   -10.2871 -10.2871 -10.2351 -10.2351 -10.1079 -10.1079 -10.0491 -10.0491
    -9.7686  -9.7686  -9.7338  -9.7338  -9.5743  -9.5743  -9.5521  -9.5521
     5.9661   5.9661   6.0680   6.0680   8.6578   8.6578   8.7099   8.7099
     9.5622   9.5622   9.6079   9.6079  10.2480  10.2480  10.2823  10.2823
    11.5824  11.5824  11.7534  11.7534  12.5165  12.5165  12.5779  12.5779

          k = 0.2500 0.1443 0.0000 (  5279 PWs)   bands (ev):

   -33.5504 -33.5504 -33.4463 -33.4463 -33.1403 -33.1403 -33.0887 -33.0887
   -14.3259 -14.3253 -14.2217 -14.2206 -13.9680 -13.9650 -13.8184 -13.8161
   -10.2427 -10.2395 -10.1892 -10.1738 -10.0507  -9.9739  -9.8494  -9.7734
    -9.7669  -9.7538  -9.5506  -9.5349  -9.4871  -9.4643  -9.3836  -9.3757
     4.6392   4.6403   5.8143   5.8168   8.1686   8.2370   9.0035   9.0261
     9.6544   9.6791  10.1040  10.1635  10.3486  10.3661  11.1891  11.2357
    11.7639  11.7734  12.0392  12.0429  12.2715  12.2822  12.5291  12.5460

          k = 0.2500 0.1443 0.3132 (  5261 PWs)   bands (ev):

   -33.5490 -33.5490 -33.4453 -33.4452 -33.1420 -33.1420 -33.0896 -33.0896
   -14.3204 -14.3156 -14.2013 -14.2010 -13.9765 -13.9748 -13.8406 -13.8361
   -10.2155 -10.2079 -10.1572 -10.1265 -10.0317 -10.0156  -9.8003  -9.7952
    -9.7592  -9.7535  -9.5829  -9.5680  -9.5251  -9.5199  -9.3925  -9.3803
     4.9589   4.9648   5.9145   5.9294   8.0979   8.1395   8.8447   8.8720
     9.4970   9.5050   9.8141   9.8328  10.3546  10.3813  11.3421  11.3986
    11.6234  11.6566  11.8474  11.8652  12.1299  12.1669  12.3492  12.3625

          k = 0.2500 0.1443-0.6263 (  5254 PWs)   bands (ev):

   -33.5476 -33.5476 -33.4442 -33.4442 -33.1438 -33.1438 -33.0905 -33.0905
   -14.3128 -14.3106 -14.1775 -14.1754 -13.9869 -13.9812 -13.8663 -13.8606
   -10.2162 -10.1977 -10.0893 -10.0588 -10.0059  -9.9913  -9.8272  -9.8096
    -9.7483  -9.7182  -9.6583  -9.6500  -9.5581  -9.5446  -9.3910  -9.3898
     5.4405   5.4676   6.0022   6.0148   7.6907   7.7099   8.6753   8.6763
     9.4064   9.4085   9.8172   9.8512  10.3297  10.3366  11.0717  11.0925
    11.4310  11.4553  11.9303  11.9618  12.0498  12.0940  12.1456  12.1584

          k = 0.2500 0.7217 0.0000 (  5270 PWs)   bands (ev):

   -33.5349 -33.5349 -33.4369 -33.4369 -33.1267 -33.1267 -33.0831 -33.0831
   -14.3385 -14.3353 -14.2519 -14.2449 -13.9631 -13.9609 -13.9186 -13.9178
   -10.2282 -10.2002 -10.1801 -10.1513 -10.0683  -9.9990  -9.9761  -9.9431
    -9.7936  -9.7830  -9.7093  -9.6617  -9.5688  -9.5461  -9.5339  -9.4919
     5.5310   5.5651   5.7858   5.8410   8.9046   8.9715   9.0870   9.1481
     9.9435   9.9798  10.0941  10.1111  10.2613  10.2838  10.4115  10.4535
    11.2650  11.3146  11.5706  11.6153  11.7939  11.8158  12.0825  12.1180

          k = 0.2500 0.7217 0.3132 (  5250 PWs)   bands (ev):

   -33.5342 -33.5342 -33.4361 -33.4361 -33.1275 -33.1275 -33.0839 -33.0838
   -14.3334 -14.3289 -14.2434 -14.2377 -13.9750 -13.9704 -13.9291 -13.9258
   -10.2115 -10.2062 -10.1727 -10.1397 -10.0600 -10.0202  -9.9677  -9.9428
    -9.7994  -9.7725  -9.7021  -9.6686  -9.5706  -9.5521  -9.5370  -9.4923
     5.6356   5.6645   5.9061   5.9543   8.9558   9.0047   9.0783   9.1199
     9.7647   9.7956   9.8924   9.9244  10.3525  10.3996  10.5561  10.5810
    10.9951  11.0391  11.3532  11.4261  11.9313  11.9490  11.9975  12.0289

          k = 0.2500 0.7217-0.6263 (  5252 PWs)   bands (ev):

   -33.5335 -33.5335 -33.4353 -33.4353 -33.1284 -33.1283 -33.0847 -33.0847
   -14.3274 -14.3207 -14.2343 -14.2287 -13.9878 -13.9809 -13.9410 -13.9350
   -10.2085 -10.1817 -10.1352 -10.1228 -10.0784 -10.0484  -9.9816  -9.9613
    -9.7773  -9.7591  -9.6791  -9.6650  -9.5900  -9.5684  -9.5416  -9.5021
     5.7800   5.8200   6.0791   6.1233   8.8190   8.8443   8.8571   8.8635
     9.6411   9.6879  10.0241  10.0401  10.4839  10.4863  10.5123  10.5340
    11.0945  11.1226  11.1749  11.2064  11.5926  11.6327  11.6491  11.7063

          k = 0.2500-1.0104 0.0000 (  5254 PWs)   bands (ev):

   -33.5224 -33.5224 -33.4243 -33.4243 -33.1168 -33.1168 -33.0737 -33.0737
   -14.3592 -14.3591 -14.2698 -14.2697 -14.0106 -14.0104 -13.9691 -13.9690
   -10.2329 -10.2296 -10.1811 -10.1694 -10.0916 -10.0751 -10.0114 -10.0017
    -9.8977  -9.8708  -9.8335  -9.7810  -9.6233  -9.6037  -9.5840  -9.5791
     5.9371   5.9424   6.0935   6.0970   9.1928   9.2328   9.2717   9.3072
     9.5891   9.5963   9.7035   9.7093  10.1134  10.1301  10.1871  10.2181
    11.2040  11.2433  11.3784  11.4131  11.8824  11.9045  12.0221  12.0288

          k = 0.2500-1.0104 0.3132 (  5260 PWs)   bands (ev):

   -33.5222 -33.5222 -33.4240 -33.4240 -33.1171 -33.1171 -33.0739 -33.0739
   -14.3608 -14.3581 -14.2707 -14.2667 -14.0191 -14.0145 -13.9749 -13.9712
   -10.2699 -10.2615 -10.1904 -10.1823 -10.1281 -10.1053  -9.9939  -9.9866
    -9.8732  -9.8697  -9.7547  -9.7229  -9.6289  -9.6132  -9.5768  -9.5569
     5.9759   5.9790   6.1100   6.1116   9.0544   9.0885   9.2196   9.2560
     9.5596   9.5710   9.5733   9.5780  10.4443  10.4532  10.4728  10.4795
    11.0104  11.0436  11.1499  11.1837  11.9734  11.9797  12.1028  12.1129

          k = 0.2500-1.0104-0.6263 (  5260 PWs)   bands (ev):

   -33.5219 -33.5219 -33.4237 -33.4237 -33.1174 -33.1174 -33.0742 -33.0742
   -14.3597 -14.3597 -14.2678 -14.2677 -14.0225 -14.0224 -13.9779 -13.9777
   -10.2960 -10.2933 -10.1955 -10.1927 -10.1448 -10.1319 -10.0107  -9.9922
    -9.8252  -9.8180  -9.7196  -9.6845  -9.6239  -9.6153  -9.5649  -9.5530
     6.0030   6.0121   6.0982   6.1067   8.9204   8.9294   8.9785   8.9832
     9.7537   9.7869   9.8439   9.8766  10.3969  10.4000  10.4321  10.4383
    11.3156  11.3558  11.3931  11.4247  11.8154  11.8290  11.8739  11.8810

          k = 0.2500-0.4330 0.0000 (  5251 PWs)   bands (ev):

   -33.5380 -33.5380 -33.4338 -33.4338 -33.1305 -33.1304 -33.0793 -33.0793
   -14.3485 -14.3434 -14.2434 -14.2365 -14.0123 -14.0101 -13.8670 -13.8657
   -10.2325 -10.2137 -10.2052 -10.1601 -10.0823 -10.0280  -9.8824  -9.8694
    -9.8587  -9.8235  -9.7387  -9.6905  -9.6120  -9.5306  -9.4746  -9.4313
     5.0768   5.0947   6.1571   6.2812   8.5308   8.6523   9.5125   9.5172
     9.9094   9.9366  10.0103  10.1084  10.2651  10.3278  11.0011  11.0760
    11.1543  11.1817  11.6006  11.6494  11.9068  11.9222  12.1383  12.1899

          k = 0.2500-0.4330 0.3132 (  5259 PWs)   bands (ev):

   -33.5370 -33.5370 -33.4332 -33.4332 -33.1317 -33.1317 -33.0796 -33.0796
   -14.3489 -14.3403 -14.2278 -14.2240 -14.0178 -14.0123 -13.8864 -13.8808
   -10.2806 -10.1909 -10.1597 -10.1539 -10.1085 -10.0073  -9.8996  -9.8609
    -9.8508  -9.7818  -9.7107  -9.6685  -9.6424  -9.5905  -9.4731  -9.4422
     5.3559   5.3852   6.1718   6.2594   8.4745   8.5575   9.5188   9.5560
     9.7274   9.7389  10.0247  10.0469  10.2474  10.3494  10.8465  10.9785
    11.0175  11.0307  11.3999  11.4556  11.5551  11.6525  12.1670  12.2342

          k = 0.2500-0.4330-0.6263 (  5266 PWs)   bands (ev):

   -33.5361 -33.5361 -33.4326 -33.4326 -33.1330 -33.1330 -33.0800 -33.0800
   -14.3505 -14.3382 -14.2113 -14.2095 -14.0230 -14.0149 -13.9065 -13.8965
   -10.3269 -10.2049 -10.1624 -10.0886 -10.0400  -9.9831  -9.9591  -9.8895
    -9.8451  -9.7571  -9.7162  -9.6504  -9.6405  -9.6005  -9.4814  -9.4595
     5.6631   5.7190   6.1829   6.2321   8.2305   8.2488   9.4336   9.4690
     9.8971   9.9137   9.9583  10.0855  10.4603  10.4685  10.5944  10.6272
    10.9068  10.9488  11.2367  11.3938  11.4742  11.4849  11.8206  11.8829

          k =-0.5000-0.2887 0.0000 (  5254 PWs)   bands (ev):

   -33.5473 -33.5473 -33.4494 -33.4494 -33.1366 -33.1366 -33.0924 -33.0924
   -14.3160 -14.3160 -14.2286 -14.2286 -13.9137 -13.9137 -13.8682 -13.8682
   -10.2371 -10.2371 -10.1720 -10.1720  -9.9543  -9.9543  -9.8622  -9.8622
    -9.6745  -9.6745  -9.5967  -9.5967  -9.4980  -9.4980  -9.4335  -9.4335
     5.1202   5.1202   5.3974   5.3974   8.6084   8.6084   8.8690   8.8690
    10.0051  10.0051  10.1543  10.1543  10.7898  10.7898  10.9217  10.9217
    11.3958  11.3958  11.6416  11.6416  12.1138  12.1138  12.3642  12.3642

          k =-0.5000-0.2887 0.3132 (  5256 PWs)   bands (ev):

   -33.5462 -33.5462 -33.4481 -33.4481 -33.1379 -33.1379 -33.0938 -33.0938
   -14.3054 -14.3012 -14.2138 -14.2130 -13.9308 -13.9283 -13.8849 -13.8810
   -10.1961 -10.1854 -10.1376 -10.1219  -9.9618  -9.9485  -9.8943  -9.8620
    -9.7147  -9.6862  -9.6656  -9.5980  -9.5187  -9.4954  -9.4571  -9.4331
     5.3258   5.3277   5.6423   5.6507   8.5397   8.5994   8.8121   8.8899
     9.6201   9.6452   9.8174   9.8597  10.6184  10.6482  10.9593  10.9739
    11.1276  11.1390  11.5280  11.5497  12.1154  12.1280  12.2058  12.2570

          k =-0.5000-0.2887-0.6263 (  5256 PWs)   bands (ev):

   -33.5450 -33.5450 -33.4469 -33.4469 -33.1392 -33.1392 -33.0951 -33.0951
   -14.2897 -14.2897 -14.1963 -14.1963 -13.9473 -13.9473 -13.8987 -13.8987
   -10.1286 -10.1286 -10.0471 -10.0471 -10.0066 -10.0066  -9.9155  -9.9155
    -9.7182  -9.7182  -9.6505  -9.6505  -9.5231  -9.5231  -9.4587  -9.4587
     5.5875   5.5875   5.9620   5.9620   8.3861   8.3861   8.4295   8.4295
     9.5388   9.5388  10.0866  10.0866  10.3744  10.3744  10.5956  10.5956
    11.2318  11.2318  11.5685  11.5685  11.7995  11.7995  11.8514  11.8514

          k =-0.5000 0.2887 0.0000 (  5253 PWs)   bands (ev):

   -33.5365 -33.5365 -33.4353 -33.4353 -33.1287 -33.1287 -33.0811 -33.0811
   -14.3437 -14.3396 -14.2473 -14.2406 -13.9942 -13.9916 -13.8872 -13.8847
   -10.2310 -10.2067 -10.1910 -10.1410 -10.1038 -10.0258  -9.9172  -9.8919
    -9.8620  -9.7756  -9.6897  -9.6618  -9.6262  -9.5851  -9.4763  -9.4487
     5.2427   5.2486   6.0275   6.1271   8.6536   8.7606   9.5338   9.5812
     9.7650   9.8104  10.0061  10.0509  10.2324  10.2853  10.7807  10.8552
    11.1145  11.1638  11.6131  11.6335  11.8787  11.9448  12.3073  12.3418

          k =-0.5000 0.2887 0.3132 (  5250 PWs)   bands (ev):

   -33.5356 -33.5356 -33.4347 -33.4347 -33.1297 -33.1297 -33.0816 -33.0816
   -14.3424 -14.3352 -14.2350 -14.2312 -14.0016 -13.9951 -13.9051 -13.8956
   -10.2553 -10.1959 -10.1639 -10.1400 -10.1161 -10.0015  -9.9461  -9.8794
    -9.8442  -9.7404  -9.7110  -9.6633  -9.6126  -9.5855  -9.5061  -9.4553
     5.4633   5.4874   6.0457   6.1121   8.7039   8.7819   9.4674   9.5148
     9.5782   9.5988   9.9177   9.9877  10.3315  10.4534  10.8701  10.8862
    11.0189  11.0812  11.2114  11.2340  11.5793  11.6563  12.2331  12.2860

          k =-0.5000 0.2887-0.6263 (  5272 PWs)   bands (ev):

   -33.5348 -33.5348 -33.4340 -33.4340 -33.1308 -33.1308 -33.0822 -33.0822
   -14.3402 -14.3303 -14.2214 -14.2185 -14.0093 -14.0010 -13.9209 -13.9117
   -10.2875 -10.1808 -10.1508 -10.1050 -10.0623  -9.9933  -9.9791  -9.9287
    -9.8322  -9.7131  -9.7023  -9.6701  -9.6428  -9.5772  -9.4969  -9.4806
     5.7137   5.7621   6.1267   6.1732   8.3965   8.4101   9.2680   9.3231
     9.7473   9.7919  10.0648  10.1687  10.4486  10.4562  10.5728  10.6007
    11.0335  11.1294  11.2170  11.2737  11.4359  11.4595  11.8349  11.8695

          k =-0.5000-1.4434 0.0000 (  5252 PWs)   bands (ev):

   -33.5224 -33.5224 -33.4244 -33.4244 -33.1168 -33.1168 -33.0737 -33.0737
   -14.3583 -14.3583 -14.2691 -14.2691 -14.0081 -14.0081 -13.9670 -13.9670
   -10.2178 -10.2178 -10.1359 -10.1359 -10.1136 -10.1136 -10.0174 -10.0174
    -9.8658  -9.8658  -9.7648  -9.7648  -9.6697  -9.6697  -9.6202  -9.6202
     5.9621   5.9621   6.1202   6.1202   9.4993   9.4993   9.5660   9.5660
     9.8126   9.8126   9.9404   9.9404  10.1694  10.1694  10.2682  10.2682
    10.9959  10.9959  11.1685  11.1685  11.9576  11.9576  12.1057  12.1057

          k =-0.5000-1.4434 0.3132 (  5244 PWs)   bands (ev):

   -33.5222 -33.5222 -33.4240 -33.4240 -33.1171 -33.1171 -33.0739 -33.0739
   -14.3597 -14.3569 -14.2697 -14.2656 -14.0168 -14.0120 -13.9734 -13.9696
   -10.2673 -10.2553 -10.1641 -10.1531 -10.1244 -10.1106 -10.0128  -9.9765
    -9.8589  -9.8524  -9.7537  -9.7222  -9.6677  -9.6460  -9.6050  -9.5889
     5.9983   6.0082   6.1212   6.1360   9.3585   9.4099   9.4439   9.4924
     9.9479   9.9861  10.0659  10.0997  10.3067  10.3303  10.4420  10.4622
    10.9766  10.9929  11.0929  11.1137  11.5278  11.5340  11.6732  11.6776

          k =-0.5000-1.4434-0.6263 (  5288 PWs)   bands (ev):

   -33.5219 -33.5219 -33.4237 -33.4237 -33.1174 -33.1174 -33.0742 -33.0742
   -14.3584 -14.3584 -14.2660 -14.2660 -14.0210 -14.0210 -13.9759 -13.9759
   -10.2951 -10.2951 -10.1703 -10.1703 -10.1358 -10.1358  -9.9806  -9.9806
    -9.8425  -9.8425  -9.7062  -9.7062  -9.6470  -9.6470  -9.5763  -9.5763
     6.0489   6.0489   6.1380   6.1380   9.3006   9.3006   9.3771   9.3771
    10.0141  10.0141  10.2495  10.2495  10.5532  10.5532  10.6084  10.6084
    10.9905  10.9905  11.1198  11.1198  11.1924  11.1924  11.3066  11.3066

          k = 0.0000-0.5773 0.3132 (  5250 PWs)   bands (ev):

   -33.5356 -33.5356 -33.4346 -33.4346 -33.1297 -33.1297 -33.0817 -33.0817
   -14.3417 -14.3345 -14.2341 -14.2304 -14.0021 -13.9958 -13.9055 -13.8965
   -10.2525 -10.1894 -10.1572 -10.1396 -10.1114 -10.0041  -9.9487  -9.8803
    -9.8438  -9.7520  -9.7182  -9.6586  -9.6170  -9.5890  -9.5043  -9.4549
     5.5054   5.5352   6.0749   6.1443   8.5828   8.6524   9.4415   9.4828
     9.5404   9.5648   9.8959   9.9759  10.3511  10.4797  10.8835  10.9120
    10.9624  11.0268  11.2945  11.3109  11.5800  11.6528  12.3092  12.3515

          k =-0.2500-0.1443 0.3132 (  5261 PWs)   bands (ev):

   -33.5490 -33.5490 -33.4453 -33.4453 -33.1420 -33.1420 -33.0896 -33.0896
   -14.3219 -14.3158 -14.2007 -14.2002 -13.9795 -13.9692 -13.8409 -13.8378
   -10.2248 -10.2089 -10.1425 -10.1380 -10.0639  -9.9737  -9.8357  -9.7757
    -9.7618  -9.6948  -9.5894  -9.5791  -9.5589  -9.5236  -9.3832  -9.3782
     5.0034   5.0160   5.8677   5.8722   8.0678   8.1140   9.1159   9.1504
     9.2902   9.3096   9.6567   9.6902  10.5731  10.6007  10.9791  10.9964
    11.5937  11.6037  11.9077  11.9281  12.2801  12.3046  12.3440  12.3604

          k =-0.2500-0.7217 0.3132 (  5250 PWs)   bands (ev):

   -33.5342 -33.5342 -33.4361 -33.4361 -33.1276 -33.1275 -33.0839 -33.0839
   -14.3325 -14.3281 -14.2429 -14.2370 -13.9757 -13.9709 -13.9297 -13.9265
   -10.2044 -10.2027 -10.1681 -10.1368 -10.0589 -10.0229  -9.9677  -9.9423
    -9.8069  -9.7780  -9.7072  -9.6735  -9.5697  -9.5508  -9.5369  -9.4928
     5.6569   5.6894   5.9429   5.9928   8.8270   8.8818   9.0369   9.1004
     9.7842   9.8136   9.8736   9.9074  10.3834  10.4425  10.5798  10.6039
    11.0608  11.1047  11.3020  11.3796  11.8775  11.9358  12.0165  12.0917

          k =-0.2500 1.0104 0.3132 (  5260 PWs)   bands (ev):

   -33.5222 -33.5222 -33.4240 -33.4240 -33.1171 -33.1171 -33.0739 -33.0739
   -14.3609 -14.3580 -14.2709 -14.2666 -14.0188 -14.0141 -13.9754 -13.9716
   -10.2695 -10.2628 -10.2002 -10.1821 -10.1080 -10.0930 -10.0216  -9.9867
    -9.8628  -9.8458  -9.7835  -9.7447  -9.6132  -9.6093  -9.5686  -9.5616
     5.9531   5.9642   6.0738   6.0871   9.2242   9.2390   9.2850   9.3079
     9.5520   9.5788   9.6124   9.6352  10.1966  10.2243  10.2515  10.2760
    11.3268  11.3780  11.5173  11.5898  11.8034  11.8791  12.0248  12.0778

          k =-0.2500 0.4330 0.3132 (  5259 PWs)   bands (ev):

   -33.5370 -33.5370 -33.4332 -33.4332 -33.1317 -33.1317 -33.0796 -33.0796
   -14.3495 -14.3406 -14.2291 -14.2248 -14.0178 -14.0121 -13.8856 -13.8796
   -10.2814 -10.1953 -10.1654 -10.1555 -10.1121 -10.0069  -9.8991  -9.8614
    -9.8518  -9.7773  -9.7068  -9.6656  -9.6382  -9.5821  -9.4751  -9.4433
     5.3177   5.3418   6.1690   6.2556   8.5198   8.6035   9.5450   9.5676
     9.7698   9.8026  10.0386  10.0565  10.2261  10.3287  10.8531  10.9283
    11.0024  11.0524  11.3563  11.3762  11.5403  11.6553  12.1644  12.2187

          k = 0.5000-0.2887 0.3132 (  5250 PWs)   bands (ev):

   -33.5356 -33.5356 -33.4346 -33.4346 -33.1297 -33.1297 -33.0817 -33.0817
   -14.3411 -14.3345 -14.2354 -14.2298 -14.0027 -13.9959 -13.9014 -13.9001
   -10.2497 -10.1851 -10.1701 -10.1431 -10.0984 -10.0036  -9.9164  -9.9139
    -9.8517  -9.7547  -9.6954  -9.6739  -9.6295  -9.5975  -9.4710  -9.4658
     5.4481   5.4693   6.0974   6.1765   8.5698   8.6479   9.3342   9.4036
     9.7988   9.8482  10.0028  10.0688  10.3857  10.4933  10.6609  10.6728
    10.9810  11.0401  11.4356  11.4552  11.6160  11.6789  12.1706  12.1960

     the Fermi energy is    10.4710 ev

!    total energy              =   -2240.78965596 Ry
     Harris-Foulkes estimate   =   -2240.78965604 Ry
     estimated scf accuracy    <       0.00000010 Ry

     total all-electron energy =    -90245.133059 Ry

     The total energy is the sum of the following terms:

     one-electron contribution =     -47.73062299 Ry
     hartree contribution      =      43.22270836 Ry
     xc contribution           =    -253.00595143 Ry
     ewald contribution        =    -235.20861951 Ry
     one-center paw contrib.   =   -1748.06312554 Ry
     smearing contrib. (-TS)   =      -0.00404485 Ry

     convergence has been achieved in  10 iterations

     Forces acting on atoms (cartesian axes, Ry/au):

     atom    1 type  1   force =    -0.00134779    0.00615162   -0.07339079
     atom    2 type  1   force =     0.01940989    0.01522718   -0.06947250
     atom    3 type  1   force =    -0.00088063   -0.00211556   -0.06209371
     atom    4 type  1   force =    -0.00207290   -0.00729716   -0.06191423
     atom    5 type  2   force =     0.00454708   -0.00098402    0.13744414
     atom    6 type  2   force =    -0.01965564   -0.01098205    0.12942709

     Total force =     0.234059     Total SCF correction =     0.000528


     Computing stress (Cartesian axis) and pressure

     Message from routine stres:
     noncollinear stress + GGA not implemented

     number of scf cycles    =   2
     number of bfgs steps    =   1

     enthalpy old            =   -2240.0850382549 Ry
     enthalpy new            =   -2240.7896559602 Ry

     CASE: enthalpy_new < enthalpy_old

     new trust radius        =       0.1175822095 bohr
     new conv_thr            =       0.0000010000 Ry

     new unit-cell volume =    880.86361 a.u.^3 (   130.53052 Ang^3 )
     density =      8.02744 g/cm^3

CELL_PARAMETERS (angstrom)
   7.227900000   0.000000000   0.000000000
  -1.807000000   3.129800000   0.000000000
   0.000000000   0.000000000   5.770100000

ATOMIC_POSITIONS (crystal)
Gd       0.332668788   0.338277613   0.701501629
Gd       0.845151234   0.348171080   0.703398509
Gd       0.166626077   0.666538334   0.242573300
Gd       0.665901211   0.664910938   0.241647979
H        0.339482019   0.308169960   1.025318986
H        0.769370671   0.252632074   1.016359598



     Writing output data file 2307.save
     NEW-OLD atomic charge density approx. for the potential

     total cpu time spent up to now is      132.8 secs

     per-process dynamical memory:   125.9 Mb

     Self-consistent Calculation

     iteration #  1     ecut=    50.00 Ry     beta=0.70
     Davidson diagonalization with overlap
     ethr =  1.00E-06,  avg # of iterations =  7.2

     total cpu time spent up to now is      143.1 secs

     total energy              =   -2240.82620830 Ry
     Harris-Foulkes estimate   =   -2240.84303643 Ry
     estimated scf accuracy    <       0.00555741 Ry

     iteration #  2     ecut=    50.00 Ry     beta=0.70
     Davidson diagonalization with overlap
     ethr =  1.21E-05,  avg # of iterations =  4.5

     total cpu time spent up to now is      149.5 secs

     total energy              =   -2240.82259139 Ry
     Harris-Foulkes estimate   =   -2240.83597862 Ry
     estimated scf accuracy    <       0.04888486 Ry

     iteration #  3     ecut=    50.00 Ry     beta=0.70
     Davidson diagonalization with overlap
     ethr =  1.21E-05,  avg # of iterations =  4.5

     total cpu time spent up to now is      155.6 secs

     total energy              =   -2240.82890429 Ry
     Harris-Foulkes estimate   =   -2240.82915945 Ry
     estimated scf accuracy    <       0.00046983 Ry

     iteration #  4     ecut=    50.00 Ry     beta=0.70
     Davidson diagonalization with overlap
     ethr =  1.02E-06,  avg # of iterations =  3.9

     total cpu time spent up to now is      161.0 secs

     total energy              =   -2240.82887225 Ry
     Harris-Foulkes estimate   =   -2240.82918416 Ry
     estimated scf accuracy    <       0.00103584 Ry

     iteration #  5     ecut=    50.00 Ry     beta=0.70
     Davidson diagonalization with overlap
     ethr =  1.02E-06,  avg # of iterations =  3.2

     total cpu time spent up to now is      165.8 secs

     total energy              =   -2240.82899933 Ry
     Harris-Foulkes estimate   =   -2240.82906167 Ry
     estimated scf accuracy    <       0.00020760 Ry

     iteration #  6     ecut=    50.00 Ry     beta=0.70
     Davidson diagonalization with overlap
     ethr =  4.51E-07,  avg # of iterations =  2.1

     total cpu time spent up to now is      170.2 secs

     total energy              =   -2240.82902796 Ry
     Harris-Foulkes estimate   =   -2240.82903587 Ry
     estimated scf accuracy    <       0.00001991 Ry

     iteration #  7     ecut=    50.00 Ry     beta=0.70
     Davidson diagonalization with overlap
     ethr =  4.33E-08,  avg # of iterations =  2.8

     total cpu time spent up to now is      174.9 secs

     total energy              =   -2240.82903110 Ry
     Harris-Foulkes estimate   =   -2240.82903311 Ry
     estimated scf accuracy    <       0.00000520 Ry

     iteration #  8     ecut=    50.00 Ry     beta=0.70
     Davidson diagonalization with overlap
     ethr =  1.13E-08,  avg # of iterations =  2.3

     total cpu time spent up to now is      179.4 secs

     End of self-consistent calculation

          k = 0.0000 0.0000 0.0000 (  5289 PWs)   bands (ev):

   -33.5146 -33.5146 -33.3900 -33.3900 -33.1913 -33.1913 -33.1365 -33.1365
   -14.2980 -14.2980 -14.1760 -14.1760 -14.0274 -14.0274 -13.8096 -13.8096
   -10.2194 -10.2194 -10.1627 -10.1627 -10.0179 -10.0179  -9.8686  -9.8686
    -9.6665  -9.6665  -9.5845  -9.5845  -9.4211  -9.4211  -9.3684  -9.3684
     4.3363   4.3363   5.9294   5.9294   7.9010   7.9010   9.1050   9.1050
     9.4021   9.4021  10.1977  10.1977  10.2880  10.2880  11.3104  11.3104
    11.9165  11.9165  12.1127  12.1127  12.3261  12.3261  12.7020  12.7020

          k = 0.0000 0.0000 0.3132 (  5279 PWs)   bands (ev):

   -33.5126 -33.5126 -33.3888 -33.3888 -33.1940 -33.1940 -33.1373 -33.1372
   -14.2965 -14.2901 -14.1503 -14.1496 -14.0365 -14.0292 -13.8380 -13.8372
   -10.2155 -10.2051 -10.1305 -10.1113 -10.0535 -10.0251  -9.8326  -9.7705
    -9.6603  -9.6564  -9.5962  -9.5766  -9.5287  -9.5263  -9.3768  -9.3766
     4.7083   4.7115   5.9419   5.9489   7.7742   7.7753   8.9405   8.9548
     9.3373   9.3781   9.8142   9.8177  10.2946  10.3015  11.4225  11.4343
    11.9815  11.9958  12.1248  12.1440  12.2629  12.2751  12.2870  12.3170

          k = 0.0000 0.0000-0.6263 (  5252 PWs)   bands (ev):

   -33.5106 -33.5106 -33.3875 -33.3875 -33.1969 -33.1969 -33.1379 -33.1379
   -14.2897 -14.2897 -14.1161 -14.1161 -14.0382 -14.0382 -13.8722 -13.8722
   -10.2271 -10.2271 -10.0877 -10.0877  -9.9607  -9.9607  -9.7396  -9.7396
    -9.7034  -9.7034  -9.6452  -9.6452  -9.5834  -9.5834  -9.3854  -9.3854
     5.2304   5.2304   5.9720   5.9720   7.3821   7.3821   8.6276   8.6276
     9.4569   9.4569   9.7192   9.7192  10.2718  10.2718  11.5018  11.5018
    11.7425  11.7425  11.9824  11.9824  12.1447  12.1447  12.2330  12.2330

          k = 0.0000 0.5773 0.0000 (  5253 PWs)   bands (ev):

   -33.4978 -33.4978 -33.3811 -33.3811 -33.1770 -33.1770 -33.1324 -33.1324
   -14.3094 -14.3042 -14.2067 -14.1971 -14.0240 -14.0218 -13.9115 -13.9102
   -10.2059 -10.1755 -10.1565 -10.1042 -10.0720  -9.9998  -9.8810  -9.8765
    -9.8544  -9.8027  -9.6938  -9.6707  -9.6439  -9.6070  -9.4841  -9.4636
     5.2053   5.2221   5.9754   6.0869   8.5697   8.6706   9.5896   9.6373
     9.7253   9.7680   9.9821  10.0245  10.2242  10.2883  10.7969  10.8813
    11.1100  11.1734  11.6853  11.7084  11.8021  11.8581  12.3946  12.4292

          k = 0.0000 0.5773 0.3132 (  5250 PWs)   bands (ev):

   -33.4968 -33.4968 -33.3802 -33.3802 -33.1784 -33.1784 -33.1332 -33.1332
   -14.3060 -14.2984 -14.1934 -14.1854 -14.0331 -14.0266 -13.9275 -13.9269
   -10.2204 -10.1668 -10.1482 -10.1078 -10.0742  -9.9757  -9.8858  -9.8791
    -9.8466  -9.7733  -9.6905  -9.6757  -9.6376  -9.6158  -9.4898  -9.4867
     5.3683   5.3991   6.0405   6.1316   8.5547   8.6306   9.3812   9.4516
     9.8251   9.8943  10.0045  10.0355  10.3853  10.5002  10.5908  10.6190
    10.9285  11.0039  11.4725  11.4992  11.6222  11.6812  12.2283  12.2418

          k = 0.0000 0.5773-0.6263 (  5272 PWs)   bands (ev):

   -33.4957 -33.4957 -33.3791 -33.3791 -33.1799 -33.1799 -33.1339 -33.1339
   -14.3030 -14.2924 -14.1742 -14.1711 -14.0405 -14.0331 -13.9519 -13.9427
   -10.2585 -10.1611 -10.1181 -10.0725 -10.0318  -9.9677  -9.9548  -9.9030
    -9.8304  -9.7256  -9.6990  -9.6578  -9.6427  -9.5927  -9.5322  -9.5132
     5.6459   5.7105   6.0940   6.1550   8.3975   8.4088   9.2635   9.3208
     9.6765   9.7350   9.9920  10.0630  10.4654  10.4680  10.5738  10.5996
    11.0837  11.1575  11.2300  11.2979  11.4907  11.5230  11.8691  11.8974

          k = 0.0000-1.1547 0.0000 (  5284 PWs)   bands (ev):

   -33.4835 -33.4835 -33.3695 -33.3695 -33.1655 -33.1655 -33.1255 -33.1255
   -14.3247 -14.3247 -14.2241 -14.2241 -14.0409 -14.0409 -14.0042 -14.0042
   -10.2079 -10.2079 -10.1622 -10.1622 -10.0447 -10.0447 -10.0077 -10.0077
    -9.8804  -9.8804  -9.8417  -9.8417  -9.5767  -9.5767  -9.5681  -9.5681
     5.8480   5.8480   6.0250   6.0250   9.0579   9.0579   9.0927   9.0927
     9.2274   9.2274   9.5004   9.5004  10.1681  10.1681  10.2168  10.2168
    11.4326  11.4326  11.6238  11.6238  11.9280  11.9280  11.9966  11.9966

          k = 0.0000-1.1547 0.3132 (  5252 PWs)   bands (ev):

   -33.4832 -33.4832 -33.3690 -33.3690 -33.1660 -33.1660 -33.1258 -33.1258
   -14.3263 -14.3233 -14.2247 -14.2200 -14.0504 -14.0455 -14.0102 -14.0066
   -10.2368 -10.2339 -10.1934 -10.1739 -10.0901 -10.0683 -10.0136 -10.0115
    -9.8493  -9.8301  -9.7732  -9.7583  -9.5986  -9.5786  -9.5650  -9.5525
     5.8713   5.8761   6.0201   6.0236   8.9547   8.9660   9.0487   9.0630
     9.2519   9.2757   9.3555   9.3844  10.2295  10.2302  10.2587  10.2614
    11.5285  11.5476  11.6838  11.7015  12.2755  12.2799  12.3227  12.3447

          k = 0.0000-1.1547-0.6263 (  5272 PWs)   bands (ev):

   -33.4828 -33.4828 -33.3685 -33.3685 -33.1664 -33.1664 -33.1262 -33.1262
   -14.3247 -14.3247 -14.2209 -14.2209 -14.0540 -14.0540 -14.0135 -14.0135
   -10.2575 -10.2575 -10.2018 -10.2018 -10.0964 -10.0964 -10.0394 -10.0394
    -9.7567  -9.7567  -9.7234  -9.7234  -9.5896  -9.5896  -9.5732  -9.5732
     5.9148   5.9148   6.0317   6.0317   8.6690   8.6690   8.7201   8.7201
     9.5389   9.5389   9.5912   9.5912  10.2616  10.2616  10.2872  10.2872
    11.6054  11.6054  11.7555  11.7555  12.5077  12.5077  12.5806  12.5806

          k = 0.2500 0.1443 0.0000 (  5279 PWs)   bands (ev):

   -33.5120 -33.5120 -33.3928 -33.3928 -33.1883 -33.1883 -33.1396 -33.1396
   -14.2921 -14.2909 -14.1827 -14.1812 -13.9958 -13.9942 -13.8392 -13.8380
   -10.2167 -10.2141 -10.1546 -10.1426 -10.0207  -9.9414  -9.8654  -9.7801
    -9.7277  -9.7219  -9.5607  -9.5479  -9.4862  -9.4605  -9.4188  -9.4062
     4.5879   4.5941   5.7469   5.7580   8.1385   8.2018   8.9917   9.0126
     9.6943   9.7211  10.1530  10.2036  10.4068  10.4226  11.2097  11.2536
    11.7577  11.7633  12.0541  12.0580  12.3106  12.3228  12.4962  12.5142

          k = 0.2500 0.1443 0.3132 (  5261 PWs)   bands (ev):

   -33.5102 -33.5102 -33.3913 -33.3913 -33.1905 -33.1905 -33.1408 -33.1408
   -14.2847 -14.2792 -14.1599 -14.1588 -14.0066 -14.0045 -13.8646 -13.8612
   -10.1884 -10.1767 -10.1293 -10.0959 -10.0112  -9.9916  -9.7964  -9.7892
    -9.7310  -9.7155  -9.5774  -9.5713  -9.5429  -9.5215  -9.4321  -9.4161
     4.8925   4.9062   5.8462   5.8695   8.0636   8.0994   8.8261   8.8508
     9.5798   9.6025   9.8800   9.9064  10.3612  10.3889  11.3564  11.4078
    11.6472  11.6810  11.8693  11.8884  12.1093  12.1474  12.3561  12.3712

          k = 0.2500 0.1443-0.6263 (  5254 PWs)   bands (ev):

   -33.5084 -33.5084 -33.3897 -33.3897 -33.1929 -33.1929 -33.1419 -33.1419
   -14.2745 -14.2729 -14.1305 -14.1292 -14.0181 -14.0125 -13.8963 -13.8909
   -10.1844 -10.1672 -10.0720 -10.0410  -9.9726  -9.9614  -9.8056  -9.7863
    -9.7340  -9.7067  -9.6369  -9.6278  -9.5805  -9.5669  -9.4331  -9.4315
     5.3419   5.3763   5.9293   5.9503   7.6980   7.7163   8.6825   8.6837
     9.4925   9.4972   9.8760   9.9044  10.3393  10.3456  11.0476  11.0651
    11.4460  11.4759  11.9360  11.9588  12.0551  12.0916  12.1496  12.1622

          k = 0.2500 0.7217 0.0000 (  5270 PWs)   bands (ev):

   -33.4964 -33.4964 -33.3826 -33.3826 -33.1752 -33.1752 -33.1343 -33.1343
   -14.3057 -14.3014 -14.2104 -14.2009 -13.9877 -13.9863 -13.9479 -13.9467
   -10.2014 -10.1732 -10.1477 -10.1195 -10.0371  -9.9636  -9.9411  -9.9063
    -9.8096  -9.7954  -9.7321  -9.6866  -9.5753  -9.5504  -9.5418  -9.5109
     5.4794   5.5189   5.7358   5.7996   8.8787   8.9419   9.0734   9.1306
     9.9406   9.9780  10.0944  10.1120  10.2707  10.2979  10.4093  10.4568
    11.2890  11.3400  11.5833  11.6293  11.8250  11.8532  12.1019  12.1355

          k = 0.2500 0.7217 0.3132 (  5250 PWs)   bands (ev):

   -33.4955 -33.4955 -33.3815 -33.3815 -33.1762 -33.1762 -33.1353 -33.1353
   -14.2990 -14.2939 -14.1992 -14.1916 -14.0018 -13.9976 -13.9593 -13.9572
   -10.1838 -10.1795 -10.1436 -10.1083 -10.0307  -9.9857  -9.9353  -9.9128
    -9.8004  -9.7819  -9.7227  -9.6809  -9.5826  -9.5625  -9.5486  -9.5138
     5.5847   5.6214   5.8523   5.9111   8.9357   8.9842   9.0669   9.1011
     9.7550   9.7883   9.8893   9.9250  10.3495  10.3990  10.5496  10.5755
    11.0340  11.0745  11.3921  11.4697  11.9427  11.9624  12.0022  12.0463

          k = 0.2500 0.7217-0.6263 (  5252 PWs)   bands (ev):

   -33.4945 -33.4945 -33.3803 -33.3803 -33.1774 -33.1774 -33.1364 -33.1364
   -14.2914 -14.2843 -14.1861 -14.1797 -14.0175 -14.0110 -13.9736 -13.9680
   -10.1813 -10.1515 -10.1077 -10.0910 -10.0514 -10.0228  -9.9614  -9.9370
    -9.7662  -9.7516  -9.6741  -9.6647  -9.6085  -9.5989  -9.5611  -9.5292
     5.7261   5.7745   6.0194   6.0753   8.8264   8.8491   8.8611   8.8651
     9.5944   9.6401   9.9915  10.0067  10.5005  10.5163  10.5320  10.5550
    11.1147  11.1561  11.1994  11.2348  11.5963  11.6431  11.6556  11.7222

          k = 0.2500-1.0104 0.0000 (  5254 PWs)   bands (ev):

   -33.4835 -33.4835 -33.3695 -33.3695 -33.1655 -33.1655 -33.1255 -33.1255
   -14.3240 -14.3239 -14.2238 -14.2236 -14.0384 -14.0381 -14.0022 -14.0020
   -10.2002 -10.1971 -10.1502 -10.1324 -10.0687 -10.0447  -9.9877  -9.9722
    -9.9075  -9.8879  -9.8478  -9.7969  -9.6276  -9.6122  -9.5969  -9.5935
     5.8745   5.8789   6.0499   6.0521   9.1874   9.2273   9.2697   9.3061
     9.5862   9.5924   9.6947   9.6996  10.1384  10.1491  10.2035  10.2349
    11.2117  11.2498  11.3855  11.4177  11.9081  11.9303  12.0292  12.0373

          k = 0.2500-1.0104 0.3132 (  5260 PWs)   bands (ev):

   -33.4832 -33.4832 -33.3690 -33.3690 -33.1660 -33.1660 -33.1258 -33.1258
   -14.3251 -14.3223 -14.2238 -14.2192 -14.0481 -14.0431 -14.0082 -14.0047
   -10.2401 -10.2316 -10.1593 -10.1493 -10.1043 -10.0834  -9.9800  -9.9663
    -9.8780  -9.8582  -9.7684  -9.7363  -9.6373  -9.6141  -9.5922  -9.5745
     5.9194   5.9213   6.0694   6.0716   9.0531   9.0866   9.2143   9.2512
     9.5626   9.5734   9.5767   9.5825  10.4472  10.4549  10.4747  10.4815
    11.0376  11.0645  11.1625  11.1920  11.9770  11.9833  12.0979  12.1093

          k = 0.2500-1.0104-0.6263 (  5260 PWs)   bands (ev):

   -33.4828 -33.4828 -33.3685 -33.3685 -33.1664 -33.1664 -33.1262 -33.1262
   -14.3235 -14.3234 -14.2192 -14.2191 -14.0526 -14.0524 -14.0116 -14.0115
   -10.2675 -10.2648 -10.1663 -10.1602 -10.1237 -10.1155  -9.9952  -9.9774
    -9.8163  -9.8117  -9.7212  -9.6845  -9.6421  -9.6219  -9.5807  -9.5734
     5.9556   5.9630   6.0644   6.0715   8.9317   8.9374   8.9865   8.9918
     9.7241   9.7588   9.8109   9.8441  10.4169  10.4195  10.4450  10.4499
    11.3288  11.3630  11.4020  11.4288  11.8074  11.8222  11.8766  11.8837

          k = 0.2500-0.4330 0.0000 (  5251 PWs)   bands (ev):

   -33.4992 -33.4992 -33.3797 -33.3797 -33.1787 -33.1787 -33.1307 -33.1307
   -14.3131 -14.3070 -14.2031 -14.1935 -14.0441 -14.0422 -13.8906 -13.8894
   -10.2066 -10.1797 -10.1772 -10.1242 -10.0583  -9.9898  -9.8851  -9.8438
    -9.8426  -9.8160  -9.7484  -9.7114  -9.6235  -9.5519  -9.4841  -9.4484
     5.0313   5.0549   6.0922   6.2273   8.5064   8.6208   9.5281   9.5310
     9.9128   9.9558  10.0305  10.1156  10.2714  10.3302  10.9953  11.0697
    11.1457  11.1747  11.6164  11.6669  11.9240  11.9359  12.1414  12.1960

          k = 0.2500-0.4330 0.3132 (  5259 PWs)   bands (ev):

   -33.4980 -33.4980 -33.3788 -33.3788 -33.1804 -33.1804 -33.1312 -33.1312
   -14.3122 -14.3028 -14.1857 -14.1794 -14.0494 -14.0443 -13.9124 -13.9080
   -10.2506 -10.1684 -10.1322 -10.1194 -10.0835  -9.9727  -9.8759  -9.8556
    -9.8193  -9.7958  -9.7071  -9.6818  -9.6530  -9.5946  -9.5008  -9.4683
     5.2956   5.3362   6.1135   6.2139   8.4529   8.5297   9.5560   9.5835
     9.7450   9.7718  10.0308  10.0487  10.2476  10.3522  10.8279  10.9595
    11.0107  11.0228  11.4178  11.4802  11.5611  11.6528  12.1805  12.2459

          k = 0.2500-0.4330-0.6263 (  5266 PWs)   bands (ev):

   -33.4968 -33.4968 -33.3780 -33.3780 -33.1821 -33.1821 -33.1316 -33.1316
   -14.3128 -14.2997 -14.1641 -14.1633 -14.0546 -14.0467 -13.9373 -13.9276
   -10.2992 -10.1889 -10.1269 -10.0572 -10.0087  -9.9531  -9.9292  -9.8641
    -9.8536  -9.7699  -9.7064  -9.6521  -9.6274  -9.6104  -9.5211  -9.4949
     5.5854   5.6542   6.1320   6.1955   8.2347   8.2532   9.4562   9.4943
     9.9297   9.9599   9.9674  10.0733  10.4454  10.4548  10.5853  10.6175
    10.8972  10.9321  11.2332  11.3897  11.4946  11.5005  11.8323  11.8909

          k =-0.5000-0.2887 0.0000 (  5254 PWs)   bands (ev):

   -33.5092 -33.5092 -33.3957 -33.3957 -33.1848 -33.1848 -33.1431 -33.1431
   -14.2842 -14.2842 -14.1885 -14.1885 -13.9362 -13.9362 -13.8942 -13.8942
   -10.2117 -10.2117 -10.1416 -10.1416  -9.9209  -9.9209  -9.8216  -9.8216
    -9.6883  -9.6883  -9.6110  -9.6110  -9.5092  -9.5092  -9.4521  -9.4521
     5.0698   5.0698   5.3467   5.3467   8.5717   8.5717   8.8472   8.8472
    10.0365  10.0365  10.1942  10.1942  10.8164  10.8164  10.9101  10.9101
    11.4562  11.4562  11.6689  11.6689  12.0606  12.0606  12.3762  12.3762

          k =-0.5000-0.2887 0.3132 (  5256 PWs)   bands (ev):

   -33.5076 -33.5076 -33.3939 -33.3939 -33.1865 -33.1865 -33.1449 -33.1449
   -14.2717 -14.2675 -14.1702 -14.1699 -13.9554 -13.9539 -13.9135 -13.9096
   -10.1703 -10.1589 -10.1086 -10.0920  -9.9254  -9.9153  -9.8586  -9.8279
    -9.7159  -9.6936  -9.6684  -9.6061  -9.5330  -9.5168  -9.4824  -9.4585
     5.2670   5.2703   5.5795   5.5896   8.5107   8.5645   8.7912   8.8582
     9.6634   9.6862   9.8773   9.9272  10.6130  10.6437  10.9669  10.9790
    11.1736  11.1804  11.5484  11.5686  12.1154  12.1279  12.1958  12.2459

          k =-0.5000-0.2887-0.6263 (  5256 PWs)   bands (ev):

   -33.5061 -33.5061 -33.3921 -33.3921 -33.1882 -33.1882 -33.1467 -33.1467
[...]

          k = 0.2500 0.1443 0.0000 (  5279 PWs)   bands (ev):

   -33.4202 -33.4202 -33.3807 -33.3807 -33.2838 -33.2838 -33.2590 -33.2590
   -14.2185 -14.2072 -14.1786 -14.1707 -14.0765 -14.0742 -13.9037 -13.9025
   -10.1596 -10.1579 -10.1363 -10.1033  -9.9942  -9.9599  -9.8693  -9.8656
    -9.6761  -9.6745  -9.5909  -9.5909  -9.5534  -9.5517  -9.4704  -9.4695
     4.1864   4.2161   5.3010   5.3375   7.7118   7.7540   8.9158   8.9435
     9.6580   9.7059  10.4059  10.4756  10.9806  10.9974  11.3937  11.4210
    11.8688  11.8898  12.1238  12.1252  12.3035  12.3459  12.3490  12.3546

          k = 0.2500 0.1443 0.3132 (  5261 PWs)   bands (ev):

   -33.4148 -33.4148 -33.3791 -33.3791 -33.2893 -33.2893 -33.2606 -33.2606
   -14.2077 -14.1973 -14.1447 -14.1386 -14.0903 -14.0888 -13.9364 -13.9333
   -10.1535 -10.1193 -10.0819 -10.0623 -10.0275 -10.0133  -9.7994  -9.7942
    -9.6677  -9.6568  -9.6229  -9.6111  -9.6085  -9.6017  -9.5114  -9.5106
     4.4073   4.4494   5.4069   5.4548   7.7798   7.8040   8.7389   8.7653
     9.7240   9.8105  10.2245  10.2661  10.3284  10.3439  11.4744  11.5004
    11.8138  11.8800  11.8864  11.9128  12.1239  12.1507  12.2706  12.2760

          k = 0.2500 0.1443-0.6263 (  5254 PWs)   bands (ev):

   -33.4089 -33.4089 -33.3776 -33.3776 -33.2954 -33.2954 -33.2621 -33.2621
   -14.1907 -14.1870 -14.1099 -14.1046 -14.0930 -14.0902 -13.9867 -13.9803
   -10.1474 -10.1206 -10.0627 -10.0540  -9.9441  -9.9281  -9.7814  -9.7768
    -9.7152  -9.7149  -9.6434  -9.6427  -9.6025  -9.6014  -9.5633  -9.5619
     4.6679   4.7258   5.5103   5.5709   7.7897   7.7910   8.6577   8.6590
     9.3821   9.3913   9.9250   9.9474  10.6364  10.6448  11.2027  11.2210
    11.6217  11.6611  11.8246  11.8376  12.0315  12.0470  12.0659  12.0673

          k = 0.2500 0.7217 0.0000 (  5270 PWs)   bands (ev):

   -33.3869 -33.3869 -33.3866 -33.3866 -33.2633 -33.2633 -33.2615 -33.2615
   -14.2164 -14.2160 -14.2031 -14.2026 -14.0509 -14.0498 -14.0403 -14.0392
   -10.1509 -10.1490 -10.0961 -10.0940  -9.9251  -9.9238  -9.9028  -9.9019
    -9.8600  -9.8584  -9.8440  -9.8428  -9.5885  -9.5876  -9.5860  -9.5849
     5.1848   5.1862   5.2944   5.2961   8.8282   8.8317   8.9002   8.9035
     9.9553   9.9594   9.9923   9.9965  10.3691  10.3734  10.4520  10.4570
    11.6618  11.6684  11.7072  11.7109  12.0312  12.0321  12.0817  12.0853

          k = 0.2500 0.7217 0.3132 (  5250 PWs)   bands (ev):

   -33.3846 -33.3846 -33.3844 -33.3844 -33.2656 -33.2656 -33.2638 -33.2637
   -14.2003 -14.1990 -14.1899 -14.1889 -14.0697 -14.0685 -14.0575 -14.0563
   -10.1444 -10.1419 -10.0903 -10.0888  -9.9553  -9.9520  -9.9354  -9.9246
    -9.8200  -9.8113  -9.8051  -9.7965  -9.6117  -9.6083  -9.5987  -9.5959
     5.3130   5.3199   5.4270   5.4317   8.8040   8.8593   8.8694   8.9307
     9.5617   9.6001   9.7583   9.8272  10.4010  10.4589  10.5891  10.6505
    11.4516  11.4827  11.4914  11.5153  12.0407  12.0462  12.0634  12.1006

          k = 0.2500 0.7217-0.6263 (  5252 PWs)   bands (ev):

   -33.3823 -33.3823 -33.3821 -33.3821 -33.2680 -33.2680 -33.2661 -33.2661
   -14.1766 -14.1761 -14.1708 -14.1703 -14.0959 -14.0950 -14.0790 -14.0778
   -10.1346 -10.1336 -10.0525 -10.0504 -10.0155 -10.0147  -9.9726  -9.9717
    -9.7508  -9.7500  -9.7082  -9.7070  -9.6715  -9.6701  -9.6310  -9.6308
     5.4635   5.4656   5.5843   5.5867   8.7963   8.7986   8.8069   8.8095
     9.4057   9.4117   9.4258   9.4325  10.6974  10.6998  10.7557  10.7584
    11.4045  11.4092  11.4497  11.4546  11.5806  11.5831  11.6075  11.6107

          k = 0.2500-1.0104 0.0000 (  5254 PWs)   bands (ev):

   -33.3729 -33.3729 -33.3727 -33.3727 -33.2545 -33.2545 -33.2526 -33.2526
   -14.2227 -14.2226 -14.2145 -14.2143 -14.1204 -14.1203 -14.1038 -14.1036
   -10.1455 -10.1439 -10.0825 -10.0819 -10.0564 -10.0559 -10.0209 -10.0199
    -9.9200  -9.9186  -9.9069  -9.9044  -9.6546  -9.6536  -9.6488  -9.6482
     5.4552   5.4558   5.5978   5.5982   9.3232   9.3242   9.3690   9.3703
     9.5276   9.5302   9.5528   9.5557  10.3109  10.3123  10.3644  10.3649
    11.6085  11.6134  11.6538  11.6570  11.9651  11.9673  12.0078  12.0112

          k = 0.2500-1.0104 0.3132 (  5260 PWs)   bands (ev):

   -33.3721 -33.3721 -33.3719 -33.3719 -33.2553 -33.2553 -33.2534 -33.2534
   -14.2164 -14.2163 -14.2117 -14.2115 -14.1304 -14.1302 -14.1117 -14.1114
   -10.1967 -10.1959 -10.1166 -10.1159 -10.0724 -10.0717 -10.0374 -10.0371
    -9.8559  -9.8545  -9.8311  -9.8291  -9.6609  -9.6602  -9.6409  -9.6405
     5.5428   5.5434   5.6756   5.6760   9.0901   9.0922   9.1215   9.1233
     9.5318   9.5355   9.5923   9.5954  10.5521  10.5534  10.6137  10.6149
    11.3859  11.3884  11.4691  11.4711  11.8170  11.8188  11.9534  11.9555

          k = 0.2500-1.0104-0.6263 (  5260 PWs)   bands (ev):

   -33.3712 -33.3712 -33.3710 -33.3710 -33.2562 -33.2562 -33.2542 -33.2542
   -14.2113 -14.2112 -14.2049 -14.2048 -14.1424 -14.1422 -14.1202 -14.1200
   -10.2314 -10.2312 -10.1314 -10.1310 -10.0984 -10.0982 -10.0560 -10.0557
    -9.7934  -9.7925  -9.7370  -9.7361  -9.6962  -9.6958  -9.6439  -9.6437
     5.6473   5.6481   5.7708   5.7715   8.9126   8.9151   8.9177   8.9205
     9.4954   9.4994   9.5098   9.5138  10.6941  10.6958  10.7262  10.7277
    11.4085  11.4110  11.5127  11.5142  11.6866  11.6879  11.7511  11.7522

          k = 0.2500-0.4330 0.0000 (  5251 PWs)   bands (ev):

   -33.4066 -33.4066 -33.3667 -33.3667 -33.2748 -33.2748 -33.2502 -33.2502
   -14.2190 -14.2144 -14.1965 -14.1844 -14.1560 -14.1243 -13.9615 -13.9573
   -10.1575 -10.1472 -10.1203 -10.0616 -10.0309 -10.0210  -9.9544  -9.9086
    -9.7872  -9.7763  -9.7702  -9.7577  -9.6940  -9.6871  -9.5110  -9.5103
     4.6396   4.6983   5.6126   5.8596   8.1790   8.2483   9.5939   9.5998
     9.9272  10.0811  10.2797  10.3392  10.5225  10.5947  10.7577  10.7702
    11.3160  11.3892  11.6996  11.7638  11.8326  11.8710  12.4236  12.4567

          k = 0.2500-0.4330 0.3132 (  5259 PWs)   bands (ev):

   -33.4024 -33.4024 -33.3666 -33.3666 -33.2791 -33.2791 -33.2502 -33.2502
   -14.2222 -14.2152 -14.1689 -14.1607 -14.1591 -14.1259 -13.9891 -13.9833
   -10.2362 -10.1225 -10.1007 -10.0672 -10.0345 -10.0136  -9.9154  -9.8497
    -9.7859  -9.7686  -9.7631  -9.7202  -9.7066  -9.7038  -9.5501  -9.5448
     4.8280   4.9005   5.6962   5.9236   8.2540   8.3074   9.5807   9.6176
     9.9225   9.9961  10.0982  10.1249  10.2479  10.3556  10.8561  10.8613
    10.8873  10.9609  11.4804  11.6130  11.6702  11.7118  12.1903  12.2305

          k = 0.2500-0.4330-0.6263 (  5266 PWs)   bands (ev):

   -33.3979 -33.3979 -33.3665 -33.3665 -33.2837 -33.2837 -33.2503 -33.2503
   -14.2259 -14.2154 -14.1652 -14.1281 -14.1268 -14.1226 -14.0309 -14.0203
   -10.2914 -10.1658 -10.0381 -10.0202 -10.0114  -9.9682  -9.8911  -9.8784
    -9.8496  -9.8170  -9.7267  -9.6743  -9.6588  -9.6484  -9.6248  -9.6062
     5.0442   5.1379   5.7890   5.9945   8.2827   8.2916   9.5451   9.5628
     9.5729   9.6019   9.8962   9.9521  10.5738  10.5994  10.7353  10.7682
    10.8649  10.8842  11.2256  11.3786  11.5983  11.6318  11.7773  11.7892

          k =-0.5000-0.2887 0.0000 (  5254 PWs)   bands (ev):

   -33.4007 -33.4007 -33.4004 -33.4004 -33.2722 -33.2722 -33.2705 -33.2705
   -14.2022 -14.2022 -14.1895 -14.1895 -13.9855 -13.9855 -13.9844 -13.9844
   -10.1592 -10.1592 -10.1156 -10.1156  -9.8153  -9.8153  -9.7990  -9.7990
    -9.7513  -9.7513  -9.7498  -9.7498  -9.5247  -9.5247  -9.5238  -9.5238
     4.8127   4.8127   4.8602   4.8602   8.3429   8.3429   8.4101   8.4101
    10.2692  10.2692  10.3228  10.3228  10.6638  10.6638  10.8070  10.8070
    11.8218  11.8218  11.8458  11.8458  12.3432  12.3432  12.3526  12.3526

          k =-0.5000-0.2887 0.3132 (  5256 PWs)   bands (ev):

   -33.3972 -33.3972 -33.3969 -33.3969 -33.2759 -33.2759 -33.2741 -33.2741
   -14.1783 -14.1776 -14.1685 -14.1675 -14.0113 -14.0104 -14.0081 -14.0070
   -10.1154 -10.1113 -10.0766 -10.0761  -9.8413  -9.8377  -9.8345  -9.8184
    -9.7491  -9.7483  -9.7345  -9.7321  -9.5580  -9.5560  -9.5540  -9.5505
     4.9704   4.9867   5.0370   5.0494   8.3570   8.4177   8.4577   8.4964
     9.6890   9.6963   9.9523  10.0593  10.6039  10.6370  10.8567  10.9286
    11.5285  11.5538  11.6719  11.6754  12.1295  12.1618  12.2270  12.2409

          k =-0.5000-0.2887-0.6263 (  5256 PWs)   bands (ev):

   -33.3934 -33.3934 -33.3931 -33.3931 -33.2797 -33.2797 -33.2779 -33.2779
   -14.1419 -14.1419 -14.1372 -14.1372 -14.0482 -14.0482 -14.0398 -14.0398
   -10.0370 -10.0370 -10.0059 -10.0059  -9.9169  -9.9169  -9.9134  -9.9134
    -9.6708  -9.6708  -9.6685  -9.6685  -9.6219  -9.6219  -9.6207  -9.6207
     5.1691   5.1691   5.2576   5.2576   8.4135   8.4135   8.4189   8.4189
     9.4752   9.4752   9.5094   9.5094  10.7835  10.7835  10.7939  10.7939
    11.5554  11.5554  11.5976  11.5976  11.7887  11.7887  11.8020  11.8020

          k =-0.5000 0.2887 0.0000 (  5253 PWs)   bands (ev):

   -33.4008 -33.4008 -33.3726 -33.3726 -33.2712 -33.2712 -33.2537 -33.2537
   -14.2231 -14.2119 -14.2029 -14.1902 -14.1214 -14.0980 -13.9845 -13.9840
   -10.1592 -10.1351 -10.1160 -10.0574 -10.0177  -9.9995  -9.9427  -9.9087
    -9.8165  -9.8006  -9.7523  -9.7511  -9.7048  -9.6916  -9.5214  -9.5209
     4.8138   4.8615   5.5023   5.7098   8.3364   8.4029   9.5563   9.6678
     9.7197   9.7521  10.2119  10.2388  10.2804  10.2872  10.6687  10.8050
    11.3629  11.4001  11.8452  11.8673  11.9723  12.0009  12.4003  12.4014

          k =-0.5000 0.2887 0.3132 (  5250 PWs)   bands (ev):

   -33.3972 -33.3972 -33.3719 -33.3719 -33.2749 -33.2749 -33.2544 -33.2544
   -14.2174 -14.2086 -14.1778 -14.1689 -14.1318 -14.1055 -14.0108 -14.0065
   -10.2020 -10.1136 -10.1029 -10.0754 -10.0283  -9.9951  -9.8853  -9.8507
    -9.8337  -9.8179  -9.7525  -9.7503  -9.7025  -9.6673  -9.5535  -9.5503
     4.9758   5.0442   5.5986   5.7927   8.4490   8.4865   9.4174   9.5058
     9.6625   9.6718   9.6767   9.7482  10.3991  10.5126  10.8602  10.9308
    11.2006  11.2704  11.5781  11.6560  11.7089  11.7121  12.1489  12.1821

          k =-0.5000 0.2887-0.6263 (  5272 PWs)   bands (ev):

   -33.3933 -33.3933 -33.3711 -33.3711 -33.2788 -33.2788 -33.2552 -33.2552
   -14.2113 -14.2026 -14.1450 -14.1415 -14.1370 -14.1134 -14.0480 -14.0395
   -10.2451 -10.1299 -10.0407 -10.0348 -10.0104 -10.0042  -9.9142  -9.9106
    -9.8441  -9.7801  -9.7109  -9.6742  -9.6713  -9.6493  -9.6251  -9.6226
     5.1744   5.2633   5.7074   5.8882   8.4180   8.4189   9.3129   9.3573
     9.4672   9.5004   9.5426   9.6073  10.7626  10.7778  10.7858  10.7943
    11.0548  11.1638  11.2908  11.3317  11.5779  11.6196  11.7984  11.8084

          k =-0.5000-1.4434 0.0000 (  5252 PWs)   bands (ev):

   -33.3730 -33.3730 -33.3727 -33.3727 -33.2545 -33.2545 -33.2525 -33.2525
   -14.2245 -14.2245 -14.2131 -14.2131 -14.1200 -14.1200 -14.0967 -14.0967
   -10.1368 -10.1368 -10.0586 -10.0586 -10.0164 -10.0164  -9.9978  -9.9978
    -9.9468  -9.9468  -9.9123  -9.9123  -9.7007  -9.7007  -9.6874  -9.6874
     5.5027   5.5027   5.7102   5.7102   9.5462   9.5462   9.6586   9.6586
     9.7035   9.7035   9.7401   9.7401  10.2167  10.2167  10.2802  10.2802
    11.3622  11.3622  11.3975  11.3975  11.9990  11.9990  12.0297  12.0297

          k =-0.5000-1.4434 0.3132 (  5244 PWs)   bands (ev):

   -33.3721 -33.3721 -33.3719 -33.3718 -33.2553 -33.2553 -33.2534 -33.2534
   -14.2181 -14.2180 -14.2093 -14.2090 -14.1310 -14.1308 -14.1047 -14.1047
   -10.2021 -10.2014 -10.1030 -10.1025 -10.0258 -10.0254  -9.9927  -9.9921
    -9.8907  -9.8895  -9.8561  -9.8544  -9.7012  -9.7003  -9.6662  -9.6656
     5.6014   5.6016   5.7960   5.7962   9.4074   9.4087   9.4954   9.4966
     9.6774   9.6808   9.7473   9.7500  10.3966  10.3991  10.5087  10.5103
    11.1966  11.1988  11.2641  11.2670  11.5976  11.5985  11.6730  11.6738

          k =-0.5000-1.4434-0.6263 (  5288 PWs)   bands (ev):

   -33.3713 -33.3713 -33.3710 -33.3710 -33.2562 -33.2562 -33.2542 -33.2542
   -14.2113 -14.2113 -14.2023 -14.2023 -14.1445 -14.1445 -14.1132 -14.1132
   -10.2450 -10.2450 -10.1293 -10.1293 -10.0359 -10.0359 -10.0052 -10.0052
    -9.8509  -9.8509  -9.7847  -9.7847  -9.7116  -9.7116  -9.6501  -9.6501
     5.7115   5.7115   5.8925   5.8925   9.3155   9.3155   9.3632   9.3632
     9.5434   9.5434   9.6116   9.6116  10.7819  10.7819  10.8176  10.8176
    11.0608  11.0608  11.1650  11.1650  11.2675  11.2675  11.3127  11.3127

          k = 0.0000-0.5773 0.3132 (  5250 PWs)   bands (ev):

   -33.3972 -33.3972 -33.3719 -33.3718 -33.2749 -33.2749 -33.2544 -33.2544
   -14.2173 -14.2085 -14.1778 -14.1689 -14.1318 -14.1055 -14.0108 -14.0065
   -10.2020 -10.1135 -10.1029 -10.0755 -10.0285  -9.9953  -9.8850  -9.8504
    -9.8335  -9.8179  -9.7527  -9.7505  -9.7026  -9.6675  -9.5533  -9.5503
     4.9761   5.0446   5.5986   5.7926   8.4485   8.4858   9.4171   9.5053
     9.6605   9.6699   9.6778   9.7495  10.3990  10.5128  10.8604  10.9309
    11.1996  11.2694  11.5772  11.6550  11.7119  11.7150  12.1505  12.1839

          k =-0.2500-0.1443 0.3132 (  5261 PWs)   bands (ev):

   -33.4148 -33.4148 -33.3791 -33.3791 -33.2894 -33.2893 -33.2606 -33.2606
   -14.2058 -14.1996 -14.1449 -14.1383 -14.0909 -14.0879 -13.9362 -13.9336
   -10.1636 -10.1186 -10.0811 -10.0623 -10.0216  -9.9992  -9.8116  -9.8007
    -9.6700  -9.6634  -9.6150  -9.6075  -9.6044  -9.5973  -9.5138  -9.5119
     4.4120   4.4524   5.3903   5.4365   7.7665   7.8002   8.9018   8.9260
     9.3313   9.3661  10.3557  10.4075  10.7086  10.7649  11.3921  11.4059
    11.5627  11.6125  11.8647  11.8994  12.2083  12.2271  12.2805  12.2843

          k =-0.2500-0.7217 0.3132 (  5250 PWs)   bands (ev):

   -33.3846 -33.3846 -33.3844 -33.3844 -33.2656 -33.2656 -33.2638 -33.2637
   -14.2002 -14.1990 -14.1899 -14.1889 -14.0697 -14.0686 -14.0575 -14.0563
   -10.1443 -10.1419 -10.0901 -10.0890  -9.9554  -9.9519  -9.9356  -9.9245
    -9.8203  -9.8110  -9.8055  -9.7962  -9.6118  -9.6082  -9.5988  -9.5958
     5.3133   5.3198   5.4274   5.4317   8.8036   8.8588   8.8685   8.9296
     9.5610   9.5994   9.7591   9.8282  10.4020  10.4602  10.5889  10.6502
    11.4493  11.4802  11.4933  11.5173  12.0424  12.0444  12.0610  12.1028

          k =-0.2500 1.0104 0.3132 (  5260 PWs)   bands (ev):

   -33.3721 -33.3721 -33.3719 -33.3719 -33.2553 -33.2553 -33.2534 -33.2534
   -14.2182 -14.2181 -14.2098 -14.2096 -14.1306 -14.1304 -14.1116 -14.1115
   -10.1930 -10.1927 -10.1157 -10.1156 -10.0738 -10.0734 -10.0451 -10.0448
    -9.8514  -9.8501  -9.8260  -9.8240  -9.6639  -9.6631  -9.6426  -9.6419
     5.5477   5.5484   5.6812   5.6815   9.0648   9.0654   9.0823   9.0830
     9.7132   9.7144   9.7945   9.7958  10.2106  10.2132  10.2873  10.2897
    11.5883  11.5914  11.6657  11.6681  11.8015  11.8059  11.9340  11.9382

          k =-0.2500 0.4330 0.3132 (  5259 PWs)   bands (ev):

   -33.4024 -33.4024 -33.3666 -33.3666 -33.2791 -33.2791 -33.2502 -33.2502
   -14.2222 -14.2152 -14.1689 -14.1607 -14.1591 -14.1258 -13.9891 -13.9833
   -10.2363 -10.1225 -10.1008 -10.0672 -10.0345 -10.0135  -9.9154  -9.8496
    -9.7859  -9.7685  -9.7631  -9.7201  -9.7065  -9.7038  -9.5501  -9.5449
     4.8278   4.9003   5.6962   5.9236   8.2541   8.3076   9.5805   9.6173
     9.9243   9.9978  10.0979  10.1248  10.2480  10.3557  10.8553  10.8618
    10.8866  10.9617  11.4804  11.6131  11.6697  11.7114  12.1896  12.2300

          k = 0.5000-0.2887 0.3132 (  5250 PWs)   bands (ev):

   -33.3972 -33.3972 -33.3719 -33.3719 -33.2749 -33.2749 -33.2544 -33.2544
   -14.2171 -14.2087 -14.1788 -14.1679 -14.1319 -14.1055 -14.0097 -14.0076
   -10.2011 -10.1113 -10.1028 -10.0757 -10.0289  -9.9958  -9.8850  -9.8508
    -9.8405  -9.8366  -9.7363  -9.7334  -9.7026  -9.6672  -9.5579  -9.5561
     4.9875   5.0490   5.5999   5.7949   8.3581   8.4196   9.4033   9.4884
     9.6929   9.7645   9.9584  10.0610  10.3966  10.5120  10.5838  10.6140
    11.1832  11.2501  11.5606  11.5866  11.5891  11.6618  12.2350  12.2511

     the Fermi energy is    10.6311 ev

!    total energy              =   -2240.92803006 Ry
     Harris-Foulkes estimate   =   -2240.92803132 Ry
     estimated scf accuracy    <          2.3E-09 Ry

     total all-electron energy =    -90245.271433 Ry

     The total energy is the sum of the following terms:

     one-electron contribution =     -47.72030720 Ry
     hartree contribution      =      43.09249605 Ry
     xc contribution           =    -252.94783247 Ry
     ewald contribution        =    -235.28573037 Ry
     one-center paw contrib.   =   -1748.06294651 Ry
     smearing contrib. (-TS)   =      -0.00370956 Ry

     convergence has been achieved in  11 iterations

     Forces acting on atoms (cartesian axes, Ry/au):

     atom    1 type  1   force =    -0.00041327   -0.00029586    0.00017097
     atom    2 type  1   force =    -0.00033703   -0.00039960    0.00005504
     atom    3 type  1   force =    -0.00000825    0.00058252   -0.00057882
     atom    4 type  1   force =     0.00002433   -0.00043291    0.00034539
     atom    5 type  2   force =     0.00082774    0.00030614   -0.00003470
     atom    6 type  2   force =    -0.00009351    0.00023971    0.00004212

     Total force =     0.001547     Total SCF correction =     0.000173
     SCF correction compared to forces is large: reduce conv_thr to get better values


     Computing stress (Cartesian axis) and pressure

     Message from routine stres:
     noncollinear stress + GGA not implemented

     Writing output data file 2307.save
 
     init_run     :      5.56s CPU      5.79s WALL (       2 calls)
     electrons    :   1039.87s CPU   1069.17s WALL (      22 calls)
     update_pot   :      5.70s CPU      8.78s WALL (      20 calls)
     forces       :     33.50s CPU     33.62s WALL (      22 calls)

     Called by init_run:
     wfcinit      :      4.63s CPU      4.76s WALL (       2 calls)
     potinit      :      0.32s CPU      0.35s WALL (       2 calls)

     Called by electrons:
     c_bands      :    878.17s CPU    897.47s WALL (     189 calls)
     sum_band     :    120.98s CPU    124.00s WALL (     189 calls)
     v_of_rho     :      0.69s CPU      0.71s WALL (     206 calls)
     newd         :     17.97s CPU     18.05s WALL (     206 calls)
     PAW_pot      :     27.97s CPU     28.36s WALL (     226 calls)
     mix_rho      :      0.62s CPU      0.64s WALL (     189 calls)

     Called by c_bands:
     init_us_2    :      4.06s CPU      4.15s WALL (   15192 calls)
     cegterg      :    798.28s CPU    815.69s WALL (    6804 calls)

     Called by sum_band:
     sum_band:bec :     33.23s CPU     33.29s WALL (    7524 calls)
     addusdens    :      5.50s CPU      5.54s WALL (     189 calls)

     Called by *egterg:
     h_psi        :    441.70s CPU    457.96s WALL (   31466 calls)
     s_psi        :     50.24s CPU     50.44s WALL (   31466 calls)
     g_psi        :      2.75s CPU      2.76s WALL (   24590 calls)
     cdiaghg      :    177.63s CPU    178.10s WALL (   30494 calls)

     Called by h_psi:
     h_psi:pot    :    436.89s CPU    453.10s WALL (   31466 calls)
     h_psi:calbec :     32.64s CPU     33.32s WALL (   31466 calls)
     vloc_psi     :    351.68s CPU    366.97s WALL (   31466 calls)
     add_vuspsi   :     52.36s CPU     52.64s WALL (   31466 calls)

     General routines
     calbec       :     49.74s CPU     50.66s WALL (   42158 calls)
     fft          :      0.56s CPU      0.61s WALL (    4058 calls)
     fftw         :    355.78s CPU    370.80s WALL ( 5037876 calls)
     davcio       :      0.00s CPU      0.07s WALL (      72 calls)
 
     Parallel routines
     fft_scatter  :    166.86s CPU    175.40s WALL ( 5041934 calls)
 
     PWSCF        : 18m15.63s CPU    19m59.98s WALL

 
   This run was terminated on:  17:24:20  13Oct2022            

=------------------------------------------------------------------------------=
   JOB DONE.
=------------------------------------------------------------------------------=
Removing 2307 from /home/shaharpit/tmp
