
     Program PWSCF v.6.1 (svn rev. 13369) starts on 13Oct2022 at 17: 4:21 

     This program is part of the open-source Quantum ESPRESSO suite
     for quantum simulation of materials; please cite
         "P. Giannozzi et al., J. Phys.:Condens. Matter 21 395502 (2009);
          URL http://www.quantum-espresso.org", 
     in publications or presentations arising from this work. More details at
     http://www.quantum-espresso.org/quote

     Parallel version (MPI), running on    16 processors
     R & G space division:  proc/nbgrp/npool/nimage =      16
     Reading input from ./hcp_50.in

     Current dimensions of program PWSCF are:
     Max number of different atomic species (ntypx) = 10
     Max number of k-points (npk) =  40000
     Max angular momentum in pseudopotentials (lmaxx) =  3
               file Gd.rel-pbe-spdn-kjpaw_psl.1.0.0.UPF: wavefunction(s)  5P 5P renormalized
               file H.pbe-kjpaw_psl.0.1.UPF: wavefunction(s)  1S renormalized

     Subspace diagonalization in iterative solution of the eigenvalue problem:
     a serial algorithm will be used

 
     Parallelization info
     --------------------
     sticks:   dense  smooth     PW     G-vecs:    dense   smooth      PW
     Min          80      80     24                 2632     2632     442
     Max          81      81     25                 2637     2637     447
     Sum        1287    1287    397                42147    42147    7103
 


     bravais-lattice index     =            0
     lattice parameter (alat)  =      13.6588  a.u.
     unit-cell volume          =     880.8636 (a.u.)^3
     number of atoms/cell      =            8
     number of atomic types    =            2
     number of electrons       =        48.00
     number of Kohn-Sham states=           58
     kinetic-energy cutoff     =      50.0000  Ry
     charge density cutoff     =     200.0000  Ry
     convergence threshold     =      1.0E-06
     mixing beta               =       0.7000
     number of iterations used =            8  plain     mixing
     Exchange-correlation      =  SLA  PW   PBX  PBC ( 1  4  3  4 0 0)
     nstep                     =          150

     Non magnetic calculation with spin-orbit


     celldm(1)=  13.658752  celldm(2)=   0.000000  celldm(3)=   0.000000
     celldm(4)=   0.000000  celldm(5)=   0.000000  celldm(6)=   0.000000

     crystal axes: (cart. coord. in units of alat)
               a(1) = (   1.000000   0.000000   0.000000 )  
               a(2) = (  -0.250003   0.433017   0.000000 )  
               a(3) = (   0.000000   0.000000   0.798309 )  

     reciprocal axes: (cart. coord. in units 2 pi/alat)
               b(1) = (  1.000000  0.577353  0.000000 )  
               b(2) = (  0.000000  2.309381  0.000000 )  
               b(3) = (  0.000000  0.000000  1.252647 )  


     PseudoPot. # 1 for Gd read from file:
     /home/shaharpit/MeamGdH/dft/qe_potentials/Gd.rel-pbe-spdn-kjpaw_psl.1.0.0.UPF
     MD5 check sum: cf50ec46d1536b4a0251694df1946a53
     Pseudo is Projector augmented-wave + core cor, Zval = 11.0
     Generated using "atomic" code by A. Dal Corso  v.6.2.2
     Shape of augmentation charge: PSQ
     Using radial grid of 1263 points, 10 beta functions with: 
                l(1) =   0
                l(2) =   0
                l(3) =   1
                l(4) =   1
                l(5) =   1
                l(6) =   1
                l(7) =   2
                l(8) =   2
                l(9) =   2
               l(10) =   2
     Q(r) pseudized with 0 coefficients 


     PseudoPot. # 2 for  H read from file:
     /home/shaharpit/MeamGdH/dft/qe_potentials/H.pbe-kjpaw_psl.0.1.UPF
     MD5 check sum: fbb168fef676c0aaadbafd73f5b1efa8
     Pseudo is Projector augmented-wave, Zval =  1.0
     Generated using "atomic" code by A. Dal Corso  v.5.0.2 svn rev. 9415
     Shape of augmentation charge: PSQ
     Using radial grid of  929 points,  2 beta functions with: 
                l(1) =   0
                l(2) =   0
     Q(r) pseudized with 0 coefficients 


     atomic species   valence    mass     pseudopotential
        Gd            11.00   157.25000     Gd( 1.00)
        H              1.00     1.00794      H( 1.00)

     No symmetry found



   Cartesian axes

     site n.     atom                  positions (alat units)
         1           Gd  tau(   1) = (   0.2499738   0.1443244   0.5987320  )
         2           Gd  tau(   2) = (   0.7499738   0.1443244   0.5987320  )
         3           Gd  tau(   3) = (   0.0000227   0.2886921   0.1995773  )
         4           Gd  tau(   4) = (   0.5000227   0.2886921   0.1995773  )
         5           H   tau(   5) = (   0.2603489   0.1351878   0.7734021  )
         6           H   tau(   6) = (   0.7141741   0.1153989   0.7679736  )
         7           H   tau(   7) = (   0.7240968   0.3952575   0.4070579  )
         8           H   tau(   8) = (   0.2676216   0.4208487   0.3987555  )

     number of k points=    36  gaussian smearing, width (Ry)=  0.0100
                       cart. coord. in units 2pi/alat
        k(    1) = (   0.0000000   0.0000000   0.0000000), wk =   0.0156250
        k(    2) = (   0.0000000   0.0000000   0.3131618), wk =   0.0312500
        k(    3) = (   0.0000000   0.0000000  -0.6263236), wk =   0.0156250
        k(    4) = (   0.0000000   0.5773452   0.0000000), wk =   0.0312500
        k(    5) = (   0.0000000   0.5773452   0.3131618), wk =   0.0312500
        k(    6) = (   0.0000000   0.5773452  -0.6263236), wk =   0.0312500
        k(    7) = (   0.0000000  -1.1546904   0.0000000), wk =   0.0156250
        k(    8) = (   0.0000000  -1.1546904   0.3131618), wk =   0.0312500
        k(    9) = (   0.0000000  -1.1546904  -0.6263236), wk =   0.0156250
        k(   10) = (   0.2500000   0.1443383   0.0000000), wk =   0.0312500
        k(   11) = (   0.2500000   0.1443383   0.3131618), wk =   0.0312500
        k(   12) = (   0.2500000   0.1443383  -0.6263236), wk =   0.0312500
        k(   13) = (   0.2500000   0.7216835   0.0000000), wk =   0.0312500
        k(   14) = (   0.2500000   0.7216835   0.3131618), wk =   0.0312500
        k(   15) = (   0.2500000   0.7216835  -0.6263236), wk =   0.0312500
        k(   16) = (   0.2500000  -1.0103521   0.0000000), wk =   0.0312500
        k(   17) = (   0.2500000  -1.0103521   0.3131618), wk =   0.0312500
        k(   18) = (   0.2500000  -1.0103521  -0.6263236), wk =   0.0312500
        k(   19) = (   0.2500000  -0.4330069   0.0000000), wk =   0.0312500
        k(   20) = (   0.2500000  -0.4330069   0.3131618), wk =   0.0312500
        k(   21) = (   0.2500000  -0.4330069  -0.6263236), wk =   0.0312500
        k(   22) = (  -0.5000000  -0.2886766   0.0000000), wk =   0.0156250
        k(   23) = (  -0.5000000  -0.2886766   0.3131618), wk =   0.0312500
        k(   24) = (  -0.5000000  -0.2886766  -0.6263236), wk =   0.0156250
        k(   25) = (  -0.5000000   0.2886686   0.0000000), wk =   0.0312500
        k(   26) = (  -0.5000000   0.2886686   0.3131618), wk =   0.0312500
        k(   27) = (  -0.5000000   0.2886686  -0.6263236), wk =   0.0312500
        k(   28) = (  -0.5000000  -1.4433670   0.0000000), wk =   0.0156250
        k(   29) = (  -0.5000000  -1.4433670   0.3131618), wk =   0.0312500
        k(   30) = (  -0.5000000  -1.4433670  -0.6263236), wk =   0.0156250
        k(   31) = (   0.0000000  -0.5773452   0.3131618), wk =   0.0312500
        k(   32) = (  -0.2500000  -0.1443383   0.3131618), wk =   0.0312500
        k(   33) = (  -0.2500000  -0.7216835   0.3131618), wk =   0.0312500
        k(   34) = (  -0.2500000   1.0103521   0.3131618), wk =   0.0312500
        k(   35) = (  -0.2500000   0.4330069   0.3131618), wk =   0.0312500
        k(   36) = (   0.5000000  -0.2886686   0.3131618), wk =   0.0312500

     Dense  grid:    42147 G-vectors     FFT dimensions: (  64,  32,  50)

     Estimated max dynamical RAM per process >      33.75MB

     Estimated total allocated dynamical RAM >     540.07MB

     Initial potential from superposition of free atoms

     starting charge   47.92377, renormalised to   48.00000
     Starting wfc are  112 randomized atomic wfcs
     Checking if some PAW data can be deallocated... 

     total cpu time spent up to now is        4.5 secs

     per-process dynamical memory:    91.6 Mb

     Self-consistent Calculation

     iteration #  1     ecut=    50.00 Ry     beta=0.70
     Davidson diagonalization with overlap
     ethr =  1.00E-02,  avg # of iterations =  2.0

     total cpu time spent up to now is        9.3 secs

     total energy              =   -2242.24356044 Ry
     Harris-Foulkes estimate   =   -2242.71863539 Ry
     estimated scf accuracy    <       0.69349226 Ry

     iteration #  2     ecut=    50.00 Ry     beta=0.70
     Davidson diagonalization with overlap
     ethr =  1.44E-03,  avg # of iterations =  4.4

     total cpu time spent up to now is       15.9 secs

     total energy              =   -2241.91885827 Ry
     Harris-Foulkes estimate   =   -2242.96332059 Ry
     estimated scf accuracy    <       3.12008757 Ry

     iteration #  3     ecut=    50.00 Ry     beta=0.70
     Davidson diagonalization with overlap
     ethr =  1.44E-03,  avg # of iterations =  4.1

     total cpu time spent up to now is       22.0 secs

     total energy              =   -2242.46251791 Ry
     Harris-Foulkes estimate   =   -2242.57073751 Ry
     estimated scf accuracy    <       0.37254554 Ry

     iteration #  4     ecut=    50.00 Ry     beta=0.70
     Davidson diagonalization with overlap
     ethr =  7.76E-04,  avg # of iterations =  3.0

     total cpu time spent up to now is       26.8 secs

     total energy              =   -2242.49291394 Ry
     Harris-Foulkes estimate   =   -2242.53277919 Ry
     estimated scf accuracy    <       0.13611506 Ry

     iteration #  5     ecut=    50.00 Ry     beta=0.70
     Davidson diagonalization with overlap
     ethr =  2.84E-04,  avg # of iterations =  2.5

     total cpu time spent up to now is       31.4 secs

     total energy              =   -2242.51192281 Ry
     Harris-Foulkes estimate   =   -2242.51691407 Ry
     estimated scf accuracy    <       0.01724695 Ry

     iteration #  6     ecut=    50.00 Ry     beta=0.70
     Davidson diagonalization with overlap
     ethr =  3.59E-05,  avg # of iterations =  4.7

     total cpu time spent up to now is       37.1 secs

     total energy              =   -2242.51432865 Ry
     Harris-Foulkes estimate   =   -2242.51488165 Ry
     estimated scf accuracy    <       0.00144589 Ry

     iteration #  7     ecut=    50.00 Ry     beta=0.70
     Davidson diagonalization with overlap
     c_bands:  2 eigenvalues not converged
     ethr =  3.01E-06,  avg # of iterations =  6.9

     total cpu time spent up to now is       44.2 secs

     total energy              =   -2242.51463025 Ry
     Harris-Foulkes estimate   =   -2242.51466955 Ry
     estimated scf accuracy    <       0.00011678 Ry

     iteration #  8     ecut=    50.00 Ry     beta=0.70
     Davidson diagonalization with overlap
     ethr =  2.43E-07,  avg # of iterations =  2.9

     total cpu time spent up to now is       49.2 secs

     total energy              =   -2242.51464103 Ry
     Harris-Foulkes estimate   =   -2242.51466231 Ry
     estimated scf accuracy    <       0.00004539 Ry

     iteration #  9     ecut=    50.00 Ry     beta=0.70
     Davidson diagonalization with overlap
     ethr =  9.46E-08,  avg # of iterations =  3.0

     total cpu time spent up to now is       54.3 secs

     total energy              =   -2242.51464912 Ry
     Harris-Foulkes estimate   =   -2242.51465900 Ry
     estimated scf accuracy    <       0.00002815 Ry

     iteration # 10     ecut=    50.00 Ry     beta=0.70
     Davidson diagonalization with overlap
     ethr =  5.87E-08,  avg # of iterations =  2.8

     total cpu time spent up to now is       59.1 secs

     total energy              =   -2242.51465392 Ry
     Harris-Foulkes estimate   =   -2242.51465449 Ry
     estimated scf accuracy    <       0.00000148 Ry

     iteration # 11     ecut=    50.00 Ry     beta=0.70
     Davidson diagonalization with overlap
     ethr =  3.09E-09,  avg # of iterations =  3.1

     total cpu time spent up to now is       64.0 secs

     End of self-consistent calculation

          k = 0.0000 0.0000 0.0000 (  5289 PWs)   bands (ev):

   -33.5194 -33.5194 -33.2824 -33.2824 -33.0322 -33.0322 -32.8687 -32.8687
   -14.3217 -14.3217 -14.1618 -14.1618 -14.1146 -14.1146 -13.8514 -13.8514
   -10.4583 -10.4583 -10.3255 -10.3255 -10.1146 -10.1146  -9.8379  -9.8379
    -9.6035  -9.6035  -9.5722  -9.5722  -9.2990  -9.2990  -8.9175  -8.9175
     3.9824   3.9824   5.8990   5.8990   6.8201   6.8201   7.4447   7.4447
     9.1231   9.1231   9.6450   9.6450   9.9128   9.9128  10.9518  10.9518
    11.4946  11.4946  11.8919  11.8919  12.1768  12.1768  12.2942  12.2942
    12.4591  12.4591

          k = 0.0000 0.0000 0.3132 (  5279 PWs)   bands (ev):

   -33.5183 -33.5183 -33.2810 -33.2810 -33.0338 -33.0338 -32.8697 -32.8697
   -14.3113 -14.2853 -14.1801 -14.1424 -14.1037 -14.0882 -13.8990 -13.8923
   -10.4595 -10.4328 -10.2852 -10.2766 -10.1097 -10.1000  -9.8784  -9.8308
    -9.6865  -9.6589  -9.5717  -9.5659  -9.3116  -9.2720  -8.9223  -8.9216
     4.3770   4.3811   5.6232   5.6479   7.0230   7.0615   7.4494   7.4820
     8.6985   8.7031   9.2017   9.2240  10.1475  10.1920  11.0423  11.0545
    11.1994  11.2365  12.0367  12.0430  12.1612  12.2098  12.2517  12.2778
    12.3812  12.4446

          k = 0.0000 0.0000-0.6263 (  5252 PWs)   bands (ev):

   -33.5172 -33.5172 -33.2797 -33.2797 -33.0355 -33.0355 -32.8708 -32.8708
   -14.2780 -14.2780 -14.1674 -14.1674 -14.0271 -14.0271 -13.9804 -13.9804
   -10.4427 -10.4427 -10.1972 -10.1972 -10.1031 -10.1031  -9.8936  -9.8936
    -9.7450  -9.7450  -9.5652  -9.5652  -9.2817  -9.2817  -8.9263  -8.9263
     4.9930   4.9930   5.4664   5.4664   6.5761   6.5761   7.7912   7.7912
     8.3738   8.3738   8.9072   8.9072  10.4841  10.4841  10.9148  10.9148
    11.1598  11.1598  11.9694  11.9694  12.1249  12.1249  12.3015  12.3015
    12.4975  12.4975

          k = 0.0000 0.5773 0.0000 (  5253 PWs)   bands (ev):

   -33.5059 -33.5059 -33.2719 -33.2719 -33.0206 -33.0205 -32.8607 -32.8606
   -14.3307 -14.3135 -14.1868 -14.1814 -14.1114 -14.0875 -13.9515 -13.9312
   -10.4815 -10.4493 -10.3515 -10.3064 -10.0689 -10.0642  -9.9540  -9.9349
    -9.7886  -9.7539  -9.6732  -9.6584  -9.3571  -9.3455  -9.1183  -9.1128
     4.9270   5.0136   5.8165   5.8680   6.9793   7.0461   7.2972   7.4481
     9.4651   9.4803   9.8261   9.8841  10.2176  10.3411  10.5836  10.6171
    11.3131  11.3698  11.6556  11.6795  11.7495  11.8101  12.2305  12.3148
    12.3744  12.4101

          k = 0.0000 0.5773 0.3132 (  5250 PWs)   bands (ev):

   -33.5054 -33.5053 -33.2710 -33.2710 -33.0216 -33.0214 -32.8614 -32.8613
   -14.3183 -14.3017 -14.1926 -14.1603 -14.1209 -14.0794 -13.9763 -13.9569
   -10.4798 -10.4319 -10.3345 -10.2850 -10.0701 -10.0402  -9.9786  -9.9624
    -9.7893  -9.7706  -9.7040  -9.6636  -9.3575  -9.3095  -9.1201  -9.1037
     5.1700   5.2355   5.7736   5.8341   6.9178   6.9800   7.2930   7.4004
     9.3607   9.4060   9.7824   9.8174  10.3991  10.4958  10.6053  10.6394
    11.0965  11.1593  11.1895  11.2271  11.5708  11.6485  12.2848  12.3104
    12.3774  12.4162

          k = 0.0000 0.5773-0.6263 (  5272 PWs)   bands (ev):

   -33.5047 -33.5047 -33.2701 -33.2701 -33.0226 -33.0224 -32.8621 -32.8619
   -14.3041 -14.2834 -14.1888 -14.1744 -14.0899 -14.0582 -14.0191 -14.0005
   -10.4888 -10.4064 -10.2952 -10.2588 -10.0699 -10.0530 -10.0062  -9.9664
    -9.8073  -9.7936  -9.7035  -9.6897  -9.3580  -9.2853  -9.1054  -9.0977
     5.3858   5.4164   5.7371   5.8023   6.8791   6.9192   7.3415   7.4382
     9.1832   9.2565   9.8954   9.9391  10.3613  10.4066  10.6192  10.6269
    11.1384  11.2174  11.2386  11.3587  11.4181  11.4265  11.7042  11.7291
    12.7230  12.7836

          k = 0.0000-1.1547 0.0000 (  5284 PWs)   bands (ev):

   -33.4935 -33.4935 -33.2602 -33.2602 -33.0101 -33.0101 -32.8514 -32.8514
   -14.3206 -14.3206 -14.2164 -14.2164 -14.0899 -14.0899 -14.0352 -14.0352
   -10.4766 -10.4766 -10.3331 -10.3331 -10.1716 -10.1716 -10.0760 -10.0760
    -9.8136  -9.8136  -9.7136  -9.7136  -9.3729  -9.3729  -9.2395  -9.2395
     5.7948   5.7948   5.9425   5.9425   6.8495   6.8495   7.1194   7.1194
     9.3610   9.3610   9.5038   9.5038   9.6860   9.6860   9.8288   9.8288
    11.5144  11.5144  11.7311  11.7311  11.8554  11.8554  11.9561  11.9561
    12.1731  12.1731

          k = 0.0000-1.1547 0.3132 (  5252 PWs)   bands (ev):

   -33.4934 -33.4934 -33.2598 -33.2598 -33.0105 -33.0105 -32.8516 -32.8516
   -14.3277 -14.3224 -14.2136 -14.2026 -14.1123 -14.1034 -14.0343 -14.0295
   -10.4955 -10.4790 -10.3559 -10.3322 -10.1588 -10.1564 -10.0735 -10.0630
    -9.8253  -9.8183  -9.7153  -9.6940  -9.3756  -9.3438  -9.2415  -9.2086
     5.6759   5.7078   5.7360   5.7768   6.9812   7.0944   7.1931   7.2941
     9.1752   9.1974   9.2449   9.2721  10.1252  10.1503  10.1718  10.1842
    11.2504  11.2925  11.4468  11.4730  12.0716  12.1167  12.1661  12.2658
    12.3239  12.3613

          k = 0.0000-1.1547-0.6263 (  5272 PWs)   bands (ev):

   -33.4932 -33.4932 -33.2593 -33.2593 -33.0109 -33.0109 -32.8517 -32.8517
   -14.3288 -14.3288 -14.2013 -14.2013 -14.1217 -14.1217 -14.0320 -14.0320
   -10.4951 -10.4951 -10.3580 -10.3580 -10.1486 -10.1486 -10.0589 -10.0589
    -9.8098  -9.8098  -9.7146  -9.7146  -9.3435  -9.3435  -9.2113  -9.2113
     5.5561   5.5561   5.7174   5.7174   6.9494   6.9494   7.4680   7.4680
     9.0349   9.0349   9.3360   9.3360  10.4891  10.4891  10.5996  10.5996
    10.9447  10.9447  11.0347  11.0347  12.3288  12.3288  12.3481  12.3481
    13.0563  13.0563

          k = 0.2500 0.1443 0.0000 (  5279 PWs)   bands (ev):

   -33.5183 -33.5183 -33.2836 -33.2836 -33.0311 -33.0310 -32.8699 -32.8699
   -14.3232 -14.3203 -14.1700 -14.1637 -14.0875 -14.0831 -13.8722 -13.8711
   -10.4675 -10.4559 -10.3295 -10.3260 -10.0640 -10.0374  -9.8290  -9.8223
    -9.6629  -9.6498  -9.5968  -9.5926  -9.2648  -9.2587  -8.9763  -8.9732
     4.2360   4.2811   5.6151   5.6857   6.8906   6.9287   7.4730   7.5825
     9.1410   9.2305   9.5700   9.5917  10.0931  10.1862  10.9415  11.0100
    11.4707  11.4924  11.9401  11.9707  12.0354  12.1010  12.1855  12.2243
    12.6713  12.7100

          k = 0.2500 0.1443 0.3132 (  5261 PWs)   bands (ev):

   -33.5172 -33.5172 -33.2822 -33.2822 -33.0325 -33.0325 -32.8711 -32.8711
   -14.3076 -14.2810 -14.1738 -14.1294 -14.1032 -14.0780 -13.9156 -13.9057
   -10.4368 -10.4313 -10.2960 -10.2779 -10.0746 -10.0401  -9.8736  -9.8289
    -9.7173  -9.6883  -9.6135  -9.5955  -9.2668  -9.2320  -8.9810  -8.9772
     4.5541   4.5949   5.7169   5.7670   6.8286   6.8390   7.3717   7.4317
     8.9193   8.9370   9.2594   9.3209  10.3671  10.4198  10.8944  10.9171
    11.3531  11.4043  11.6832  11.6890  11.8901  11.9412  12.3645  12.3946
    12.4693  12.4815

          k = 0.2500 0.1443-0.6263 (  5254 PWs)   bands (ev):

   -33.5162 -33.5162 -33.2807 -33.2807 -33.0340 -33.0340 -32.8723 -32.8723
   -14.2662 -14.2635 -14.1645 -14.1632 -14.0399 -14.0292 -13.9893 -13.9823
   -10.4254 -10.4083 -10.2237 -10.2118 -10.0740 -10.0597  -9.8873  -9.8826
    -9.7734  -9.7519  -9.6069  -9.6034  -9.2474  -9.2424  -8.9783  -8.9770
     5.1080   5.1400   5.4320   5.4738   6.6909   6.7002   7.5723   7.5985
     8.5970   8.6380   9.2173   9.2562  10.5080  10.5143  10.8765  10.9023
    11.0515  11.0633  11.8588  11.8674  11.9523  11.9686  12.0794  12.0918
    12.3502  12.3530

          k = 0.2500 0.7217 0.0000 (  5270 PWs)   bands (ev):

   -33.5053 -33.5053 -33.2725 -33.2725 -33.0200 -33.0199 -32.8614 -32.8612
   -14.3316 -14.3133 -14.1876 -14.1799 -14.0930 -14.0732 -13.9685 -13.9478
   -10.4874 -10.4519 -10.3533 -10.3083 -10.0369 -10.0269  -9.9835  -9.9546
    -9.7751  -9.7336  -9.7186  -9.6708  -9.3025  -9.2937  -9.1666  -9.1573
     5.3267   5.3823   5.5177   5.5728   6.9166   6.9806   7.2710   7.3948
     9.5158   9.5649   9.7924   9.8191  10.1572  10.2021  10.3880  10.4531
    11.4109  11.4968  11.7289  11.7607  11.8081  11.8685  11.9885  12.0574
    12.1156  12.1491

          k = 0.2500 0.7217 0.3132 (  5250 PWs)   bands (ev):

   -33.5048 -33.5048 -33.2716 -33.2716 -33.0209 -33.0208 -32.8621 -32.8619
   -14.3172 -14.3012 -14.1883 -14.1601 -14.1104 -14.0733 -13.9873 -13.9700
   -10.4720 -10.4407 -10.3369 -10.2920 -10.0336 -10.0250  -9.9924  -9.9843
    -9.7706  -9.7560  -9.7195  -9.6975  -9.2999  -9.2746  -9.1661  -9.1393
     5.3556   5.4180   5.5665   5.6301   6.8804   6.9398   7.3737   7.4964
     9.5215   9.5641   9.8129   9.8470  10.2007  10.2781  10.5469  10.5973
    11.0112  11.0605  11.2140  11.2789  11.8873  11.9240  11.9691  12.0071
    12.3297  12.3631

          k = 0.2500 0.7217-0.6263 (  5252 PWs)   bands (ev):

   -33.5042 -33.5042 -33.2706 -33.2706 -33.0218 -33.0217 -32.8629 -32.8627
   -14.2964 -14.2790 -14.1865 -14.1749 -14.0941 -14.0628 -14.0236 -14.0026
   -10.4587 -10.4134 -10.3205 -10.2679 -10.0558 -10.0308 -10.0248  -9.9755
    -9.7854  -9.7641  -9.7427  -9.7091  -9.2898  -9.2583  -9.1622  -9.1242
     5.4924   5.5255   5.6010   5.6361   6.9151   6.9567   7.3387   7.4171
     9.4623   9.5112   9.7888   9.8473  10.5512  10.5732  10.6670  10.6826
    10.8687  10.8817  11.1063  11.1288  11.4367  11.4798  11.5094  11.5436
    12.8080  12.9117

          k = 0.2500-1.0104 0.0000 (  5254 PWs)   bands (ev):

   -33.4935 -33.4935 -33.2602 -33.2602 -33.0100 -33.0100 -32.8514 -32.8514
   -14.3202 -14.3200 -14.2176 -14.2165 -14.0871 -14.0858 -14.0340 -14.0335
   -10.4730 -10.4700 -10.3327 -10.3294 -10.1610 -10.1486 -10.0481 -10.0242
    -9.8595  -9.8430  -9.7295  -9.7285  -9.3896  -9.3834  -9.2596  -9.2567
     5.8132   5.8380   5.9269   5.9487   6.8756   6.9196   7.0694   7.1182
     9.6284   9.6471   9.7104   9.7199   9.8732   9.9366  10.0218  10.0931
    11.3740  11.3945  11.5619  11.5946  11.7925  11.8213  11.9824  12.0020
    12.2179  12.2675

          k = 0.2500-1.0104 0.3132 (  5260 PWs)   bands (ev):

   -33.4934 -33.4934 -33.2598 -33.2598 -33.0105 -33.0105 -32.8516 -32.8516
   -14.3263 -14.3210 -14.2143 -14.2044 -14.1076 -14.1002 -14.0332 -14.0289
   -10.4929 -10.4782 -10.3449 -10.3274 -10.1492 -10.1374 -10.0341 -10.0291
    -9.8582  -9.8443  -9.7474  -9.7121  -9.3927  -9.3487  -9.2622  -9.2218
     5.6887   5.7049   5.7516   5.7656   7.1057   7.1785   7.2437   7.3103
     9.4244   9.4748   9.5201   9.5719  10.2818  10.3088  10.3749  10.3966
    11.0490  11.0849  11.2312  11.2674  11.8268  11.8662  11.9227  11.9476
    12.4242  12.4393

          k = 0.2500-1.0104-0.6263 (  5260 PWs)   bands (ev):

   -33.4932 -33.4932 -33.2593 -33.2593 -33.0109 -33.0109 -32.8517 -32.8517
   -14.3272 -14.3271 -14.2004 -14.1988 -14.1219 -14.1192 -14.0317 -14.0307
   -10.4997 -10.4883 -10.3525 -10.3325 -10.1372 -10.1339 -10.0391 -10.0248
    -9.8479  -9.8393  -9.7372  -9.7304  -9.3709  -9.3518  -9.2261  -9.2139
     5.6520   5.6766   5.7921   5.8230   6.9584   6.9852   7.3409   7.3763
     9.3103   9.3584   9.5483   9.6194  10.6195  10.6498  10.6954  10.7215
    10.9275  10.9358  11.0279  11.0342  11.7141  11.7173  11.7780  11.7952
    12.8561  12.9147

          k = 0.2500-0.4330 0.0000 (  5251 PWs)   bands (ev):

   -33.5065 -33.5065 -33.2713 -33.2713 -33.0212 -33.0211 -32.8601 -32.8600
   -14.3298 -14.3129 -14.1864 -14.1825 -14.1269 -14.1010 -13.9361 -13.9176
   -10.4767 -10.4451 -10.3522 -10.3029 -10.0936 -10.0655  -9.9629  -9.9399
    -9.7833  -9.7312  -9.6736  -9.6436  -9.3937  -9.3823  -9.0883  -9.0811
     4.7343   4.8115   5.9444   5.9540   7.0193   7.1072   7.3321   7.4971
     9.3905   9.4553  10.0061  10.0172  10.1721  10.3705  10.8525  10.9145
    11.2532  11.3433  11.4727  11.5031  11.7615  11.7995  12.2765  12.2925
    12.4291  12.5746

          k = 0.2500-0.4330 0.3132 (  5259 PWs)   bands (ev):

   -33.5059 -33.5059 -33.2704 -33.2704 -33.0223 -33.0221 -32.8607 -32.8606
   -14.3179 -14.2974 -14.1995 -14.1701 -14.1167 -14.0834 -13.9684 -13.9512
   -10.4868 -10.4242 -10.3274 -10.2780 -10.0886 -10.0386  -9.9945  -9.9539
    -9.7972  -9.7571  -9.6970  -9.6653  -9.4003  -9.3401  -9.0839  -9.0701
     5.0055   5.0722   5.9036   5.9219   7.0148   7.0916   7.2843   7.3911
     9.2339   9.2562   9.8031   9.8670  10.3383  10.4150  10.9424  10.9620
    11.0492  11.1956  11.2376  11.2607  11.5635  11.7048  12.2540  12.3425
    12.5142  12.5383

          k = 0.2500-0.4330-0.6263 (  5266 PWs)   bands (ev):

   -33.5053 -33.5052 -33.2695 -33.2695 -33.0233 -33.0231 -32.8613 -32.8612
   -14.3107 -14.2880 -14.1910 -14.1745 -14.0861 -14.0536 -14.0155 -13.9975
   -10.5090 -10.4027 -10.2772 -10.2489 -10.0892 -10.0563  -9.9996  -9.9636
    -9.8171  -9.7961  -9.6909  -9.6781  -9.4028  -9.3073  -9.0781  -9.0697
     5.3141   5.3494   5.8865   5.9220   6.8701   6.9101   7.2785   7.3722
     9.0568   9.1309   9.7538   9.7884  10.5377  10.5715  10.6415  10.6974
    10.9726  11.1390  11.4332  11.4690  11.4989  11.6423  11.7133  11.7598
    12.5753  12.6190

          k =-0.5000-0.2887 0.0000 (  5254 PWs)   bands (ev):

   -33.5171 -33.5171 -33.2848 -33.2848 -33.0299 -33.0299 -32.8711 -32.8711
   -14.3216 -14.3216 -14.1693 -14.1693 -14.0527 -14.0527 -13.8978 -13.8978
   -10.4645 -10.4645 -10.3300 -10.3300  -9.9535  -9.9535  -9.8174  -9.8174
    -9.7466  -9.7466  -9.6100  -9.6100  -9.1980  -9.1980  -9.0582  -9.0582
     4.8121   4.8121   5.1031   5.1031   7.0643   7.0643   7.5462   7.5462
     9.3061   9.3061   9.5790   9.5790  10.4247  10.4247  10.8680  10.8680
    11.4931  11.4931  11.7554  11.7554  12.0963  12.0963  12.2643  12.2643
    12.5030  12.5030

          k =-0.5000-0.2887 0.3132 (  5256 PWs)   bands (ev):

   -33.5161 -33.5161 -33.2833 -33.2833 -33.0312 -33.0312 -32.8725 -32.8725
   -14.3021 -14.2825 -14.1653 -14.1360 -14.0802 -14.0562 -13.9408 -13.9237
   -10.4356 -10.4204 -10.2995 -10.2853  -9.9849  -9.9671  -9.8565  -9.8379
    -9.7730  -9.7590  -9.6539  -9.6125  -9.1974  -9.1826  -9.0633  -9.0478
     4.9598   5.0084   5.2690   5.3353   6.8858   6.9426   7.5188   7.5915
     9.2043   9.2388   9.4576   9.4665  10.4110  10.4232  10.8751  10.9435
    11.0816  11.0896  11.3195  11.3591  12.1230  12.1422  12.2485  12.2794
    12.5211  12.5385

          k =-0.5000-0.2887-0.6263 (  5256 PWs)   bands (ev):

   -33.5152 -33.5152 -33.2818 -33.2818 -33.0326 -33.0326 -32.8738 -32.8738
   -14.2499 -14.2499 -14.1613 -14.1613 -14.0430 -14.0430 -13.9909 -13.9909
   -10.3842 -10.3842 -10.2455 -10.2455 -10.0228 -10.0228  -9.8476  -9.8476
    -9.8189  -9.8189  -9.6425  -9.6425  -9.1834  -9.1834  -9.0536  -9.0536
     5.3167   5.3167   5.3834   5.3834   6.8425   6.8425   7.3821   7.3821
     9.0705   9.0705   9.4894   9.4894  10.4628  10.4628  10.7147  10.7147
    11.0775  11.0775  11.4776  11.4776  11.6986  11.6986  11.7352  11.7352
    12.8837  12.8838

          k =-0.5000 0.2887 0.0000 (  5253 PWs)   bands (ev):

   -33.5059 -33.5059 -33.2719 -33.2719 -33.0206 -33.0205 -32.8607 -32.8606
   -14.3308 -14.3127 -14.1877 -14.1805 -14.1107 -14.0905 -13.9496 -13.9315
   -10.4812 -10.4487 -10.3519 -10.3063 -10.0691 -10.0635  -9.9529  -9.9359
    -9.7883  -9.7527  -9.6756  -9.6596  -9.3584  -9.3444  -9.1182  -9.1117
     4.9255   5.0066   5.8311   5.8866   6.9455   7.0228   7.3073   7.4536
     9.4487   9.4808   9.8492   9.9051  10.2383  10.3616  10.5460  10.6038
    11.2527  11.3154  11.7064  11.7689  11.8813  11.9400  12.1583  12.2214
    12.3297  12.3936

          k =-0.5000 0.2887 0.3132 (  5250 PWs)   bands (ev):

   -33.5054 -33.5053 -33.2710 -33.2710 -33.0216 -33.0214 -32.8614 -32.8612
   -14.3190 -14.3014 -14.1917 -14.1678 -14.1093 -14.0852 -13.9705 -13.9617
   -10.4794 -10.4388 -10.3316 -10.2899 -10.0714 -10.0411  -9.9755  -9.9473
    -9.7925  -9.7559  -9.7047  -9.6776  -9.3624  -9.3166  -9.1150  -9.0994
     5.0363   5.0956   5.8140   5.8691   6.9777   7.0440   7.3827   7.5116
     9.3793   9.3834   9.9242   9.9478  10.3069  10.4056  10.5479  10.5931
    11.1079  11.1941  11.2792  11.2939  11.5802  11.6589  12.2155  12.2511
    12.4295  12.4779

          k =-0.5000 0.2887-0.6263 (  5272 PWs)   bands (ev):

   -33.5047 -33.5047 -33.2701 -33.2701 -33.0226 -33.0224 -32.8621 -32.8619
   -14.3037 -14.2839 -14.1886 -14.1742 -14.0906 -14.0585 -14.0190 -13.9999
   -10.4866 -10.4075 -10.2966 -10.2589 -10.0706 -10.0552 -10.0045  -9.9640
    -9.8048  -9.7899  -9.7081  -9.6924  -9.3574  -9.2852  -9.1060  -9.0972
     5.3523   5.4028   5.7856   5.8346   6.9069   6.9471   7.2734   7.3562
     9.1879   9.2670   9.9387   9.9805  10.3770  10.4383  10.6155  10.6246
    11.1631  11.2376  11.2630  11.3587  11.3947  11.4027  11.7064  11.7223
    12.6968  12.7348

          k =-0.5000-1.4434 0.0000 (  5252 PWs)   bands (ev):

   -33.4935 -33.4935 -33.2602 -33.2602 -33.0100 -33.0100 -32.8514 -32.8514
   -14.3196 -14.3196 -14.2177 -14.2177 -14.0829 -14.0829 -14.0324 -14.0324
   -10.4660 -10.4660 -10.3290 -10.3290 -10.1369 -10.1369  -9.9609  -9.9609
    -9.9241  -9.9241  -9.7456  -9.7456  -9.3998  -9.3998  -9.2776  -9.2776
     5.8573   5.8573   5.9336   5.9336   6.9418   6.9418   7.0698   7.0698
     9.9193   9.9193  10.0538  10.0538  10.1910  10.1910  10.3571  10.3571
    11.1696  11.1696  11.3122  11.3122  11.8527  11.8527  12.0848  12.0848
    12.4216  12.4216

          k =-0.5000-1.4434 0.3132 (  5244 PWs)   bands (ev):

   -33.4934 -33.4934 -33.2598 -33.2598 -33.0105 -33.0105 -32.8516 -32.8516
   -14.3251 -14.3197 -14.2151 -14.2033 -14.1057 -14.0954 -14.0334 -14.0281
   -10.4916 -10.4657 -10.3480 -10.3118 -10.1318 -10.1223  -9.9738  -9.9675
    -9.9218  -9.9041  -9.7696  -9.7354  -9.4030  -9.3692  -9.2712  -9.2389
     5.8167   5.8412   5.8973   5.9284   6.9605   6.9945   7.1124   7.1497
     9.8667   9.8950   9.9718   9.9904  10.3934  10.4161  10.5038  10.5116
    11.1153  11.1494  11.2305  11.2421  11.5516  11.5668  11.6396  11.6491
    12.3945  12.4071

          k =-0.5000-1.4434-0.6263 (  5288 PWs)   bands (ev):

   -33.4932 -33.4932 -33.2593 -33.2593 -33.0109 -33.0109 -32.8517 -32.8517
   -14.3255 -14.3255 -14.1979 -14.1979 -14.1194 -14.1194 -14.0304 -14.0304
   -10.4934 -10.4934 -10.3258 -10.3258 -10.1214 -10.1214  -9.9898  -9.9898
    -9.8924  -9.8924  -9.7547  -9.7547  -9.3802  -9.3802  -9.2280  -9.2280
     5.7893   5.7893   5.9046   5.9046   7.0116   7.0116   7.2047   7.2047
     9.7780   9.7780  10.0329  10.0329  10.4230  10.4230  10.6326  10.6326
    11.1362  11.1362  11.2487  11.2487  11.2776  11.2776  11.4299  11.4299
    12.6077  12.6077

          k = 0.0000-0.5773 0.3132 (  5250 PWs)   bands (ev):

   -33.5053 -33.5053 -33.2710 -33.2710 -33.0216 -33.0214 -32.8614 -32.8613
   -14.3171 -14.2964 -14.1950 -14.1689 -14.1081 -14.0792 -13.9779 -13.9633
   -10.4787 -10.4343 -10.3284 -10.2844 -10.0704 -10.0424  -9.9868  -9.9491
    -9.7988  -9.7610  -9.7041  -9.6800  -9.3612  -9.3138  -9.1123  -9.0965
     5.0872   5.1508   5.7756   5.8325   7.0377   7.0991   7.3263   7.4439
     9.3416   9.3507   9.8365   9.8712  10.3114  10.4177  10.6005  10.6304
    11.0882  11.1999  11.4102  11.4370  11.5709  11.6380  12.1836  12.2180
    12.4102  12.4625

          k =-0.2500-0.1443 0.3132 (  5261 PWs)   bands (ev):

   -33.5172 -33.5172 -33.2822 -33.2822 -33.0325 -33.0325 -32.8711 -32.8711
   -14.3058 -14.2868 -14.1702 -14.1444 -14.0878 -14.0733 -13.9187 -13.9077
   -10.4589 -10.4216 -10.2889 -10.2830 -10.0529 -10.0446  -9.8641  -9.8341
    -9.7063  -9.7017  -9.6193  -9.5925  -9.2707  -9.2450  -8.9761  -8.9696
     4.6191   4.6582   5.3637   5.4167   7.0606   7.0975   7.6130   7.6549
     8.8240   8.8453   9.4167   9.4184  10.2065  10.2099  10.9273  10.9521
    11.2424  11.2513  11.7477  11.7584  12.1742  12.2233  12.3372  12.3622
    12.4499  12.4761

          k =-0.2500-0.7217 0.3132 (  5250 PWs)   bands (ev):

   -33.5048 -33.5048 -33.2716 -33.2715 -33.0209 -33.0208 -32.8621 -32.8620
   -14.3151 -14.2951 -14.1915 -14.1620 -14.1086 -14.0696 -13.9935 -13.9715
   -10.4698 -10.4353 -10.3338 -10.2875 -10.0349 -10.0326  -9.9990  -9.9838
    -9.7751  -9.7560  -9.7248  -9.7016  -9.2967  -9.2703  -9.1650  -9.1371
     5.4013   5.4617   5.5769   5.6409   6.9014   6.9570   7.2779   7.3984
     9.4861   9.5476   9.8163   9.8451  10.1877  10.2485  10.5746  10.6402
    11.0769  11.1397  11.3041  11.3695  11.7918  11.8391  11.9180  12.0161
    12.3271  12.3472

          k =-0.2500 1.0104 0.3132 (  5260 PWs)   bands (ev):

   -33.4934 -33.4934 -33.2598 -33.2598 -33.0105 -33.0105 -32.8516 -32.8516
   -14.3266 -14.3211 -14.2144 -14.2015 -14.1105 -14.0985 -14.0345 -14.0286
   -10.4944 -10.4659 -10.3603 -10.3166 -10.1455 -10.1394 -10.0406 -10.0291
    -9.8591  -9.8540  -9.7352  -9.7162  -9.3858  -9.3633  -9.2511  -9.2255
     5.8094   5.8265   5.9180   5.9354   6.8309   6.9067   7.0621   7.1379
     9.4332   9.4616   9.5484   9.5787  10.2777  10.3026  10.3661  10.3939
    11.2307  11.3033  11.5545  11.6116  11.7101  11.7463  11.8255  11.8605
    12.1648  12.1930

          k =-0.2500 0.4330 0.3132 (  5259 PWs)   bands (ev):

   -33.5059 -33.5059 -33.2704 -33.2704 -33.0222 -33.0221 -32.8607 -32.8606
   -14.3200 -14.3019 -14.1963 -14.1691 -14.1177 -14.0889 -13.9621 -13.9493
   -10.4879 -10.4295 -10.3292 -10.2830 -10.0897 -10.0391  -9.9854  -9.9515
    -9.7929  -9.7546  -9.6905  -9.6621  -9.4014  -9.3416  -9.0869  -9.0744
     4.9602   5.0161   5.9251   5.9562   7.0245   7.0882   7.2920   7.4130
     9.3027   9.3222   9.8232   9.8844  10.3382  10.4191  10.7823  10.7975
    11.0968  11.1465  11.1708  11.2730  11.5455  11.6710  12.2972  12.3754
    12.4910  12.5147

          k = 0.5000-0.2887 0.3132 (  5250 PWs)   bands (ev):

   -33.5053 -33.5053 -33.2710 -33.2710 -33.0216 -33.0214 -32.8614 -32.8613
   -14.3160 -14.2961 -14.1959 -14.1624 -14.1191 -14.0764 -13.9814 -13.9585
   -10.4774 -10.4255 -10.3329 -10.2810 -10.0711 -10.0443  -9.9835  -9.9648
    -9.7895  -9.7700  -9.7152  -9.6693  -9.3548  -9.3076  -9.1175  -9.0997
     5.2036   5.2836   5.8016   5.8539   6.8820   6.9493   7.2377   7.3403
     9.3173   9.3629   9.7845   9.8165  10.4076  10.4946  10.7161  10.7645
    11.1208  11.1758  11.2728  11.2996  11.5959  11.6897  12.1980  12.2363
    12.3388  12.3863

     the Fermi energy is    10.9648 ev

!    total energy              =   -2242.51465421 Ry
     Harris-Foulkes estimate   =   -2242.51465426 Ry
     estimated scf accuracy    <       0.00000005 Ry

     total all-electron energy =    -90246.858048 Ry

     The total energy is the sum of the following terms:

     one-electron contribution =     -44.28734037 Ry
     hartree contribution      =      43.20586772 Ry
     xc contribution           =    -254.89899788 Ry
     ewald contribution        =    -238.45252823 Ry
     one-center paw contrib.   =   -1748.07852063 Ry
     smearing contrib. (-TS)   =      -0.00313483 Ry

     convergence has been achieved in  11 iterations

     Forces acting on atoms (cartesian axes, Ry/au):

     atom    1 type  1   force =    -0.04652721    0.02990075   -0.76802650
     atom    2 type  1   force =     0.16116172    0.10730402   -0.74482324
     atom    3 type  1   force =     0.00037515    0.00109118   -0.00601751
     atom    4 type  1   force =    -0.00750459   -0.01218980   -0.02610164
     atom    5 type  2   force =     0.04227973   -0.03533154    0.78969806
     atom    6 type  2   force =    -0.15116649   -0.11652460    0.76607403
     atom    7 type  2   force =     0.00477970    0.01723353   -0.00671259
     atom    8 type  2   force =    -0.00339802    0.00851646   -0.00409061

     Total force =     1.560935     Total SCF correction =     0.000634


     Computing stress (Cartesian axis) and pressure

     Message from routine stres:
     noncollinear stress + GGA not implemented

     BFGS Geometry Optimization

     number of scf cycles    =   1
     number of bfgs steps    =   0

     enthalpy new            =   -2242.5146542142 Ry

     new trust radius        =       0.5000000000 bohr
     new conv_thr            =       0.0000010000 Ry

     new unit-cell volume =    880.86361 a.u.^3 (   130.53052 Ang^3 )
     density =      8.05309 g/cm^3

CELL_PARAMETERS (angstrom)
   7.227900000   0.000000000   0.000000000
  -1.807000000   3.129800000   0.000000000
   0.000000000   0.000000000   5.770100000

ATOMIC_POSITIONS (crystal)
Gd       0.331946757   0.336493163   0.705511436
Gd       0.843617400   0.344759217   0.706855504
Gd       0.166746481   0.666816530   0.249651431
Gd       0.666027520   0.665398227   0.248488041
H        0.339411835   0.308426872   1.014543907
H        0.770698632   0.254056098   1.006375466
H        0.952981134   0.914640404   0.509511168
H        0.510670242   0.972809490   0.499263048



     Writing output data file 2308.save
     NEW-OLD atomic charge density approx. for the potential

     total cpu time spent up to now is       67.9 secs

     per-process dynamical memory:   128.7 Mb

     Self-consistent Calculation

     iteration #  1     ecut=    50.00 Ry     beta=0.70
     Davidson diagonalization with overlap
     c_bands:  2 eigenvalues not converged
     c_bands:  2 eigenvalues not converged
     c_bands:  2 eigenvalues not converged
     c_bands:  2 eigenvalues not converged
     c_bands:  2 eigenvalues not converged
     c_bands:  2 eigenvalues not converged
     c_bands:  1 eigenvalues not converged
     c_bands:  2 eigenvalues not converged
     c_bands:  2 eigenvalues not converged
     c_bands:  2 eigenvalues not converged
     c_bands:  2 eigenvalues not converged
     c_bands:  2 eigenvalues not converged
     c_bands:  2 eigenvalues not converged
     c_bands:  2 eigenvalues not converged
     c_bands:  1 eigenvalues not converged
     ethr =  1.00E-06,  avg # of iterations = 17.4

     total cpu time spent up to now is       83.8 secs

     total energy              =   -2243.06880073 Ry
     Harris-Foulkes estimate   =   -2243.68757250 Ry
     estimated scf accuracy    <       0.29414267 Ry

     iteration #  2     ecut=    50.00 Ry     beta=0.70
     Davidson diagonalization with overlap
     ethr =  6.13E-04,  avg # of iterations =  4.2

     total cpu time spent up to now is       90.8 secs

     total energy              =   -2242.93669583 Ry
     Harris-Foulkes estimate   =   -2243.55034735 Ry
     estimated scf accuracy    <       2.10685048 Ry

     iteration #  3     ecut=    50.00 Ry     beta=0.70
     Davidson diagonalization with overlap
     ethr =  6.13E-04,  avg # of iterations =  4.5

     total cpu time spent up to now is       97.2 secs

     total energy              =   -2243.20404607 Ry
     Harris-Foulkes estimate   =   -2243.23672612 Ry
     estimated scf accuracy    <       0.08521248 Ry

     iteration #  4     ecut=    50.00 Ry     beta=0.70
     Davidson diagonalization with overlap
     ethr =  1.78E-04,  avg # of iterations =  3.0

     total cpu time spent up to now is      102.2 secs

     total energy              =   -2243.21973063 Ry
     Harris-Foulkes estimate   =   -2243.22373037 Ry
     estimated scf accuracy    <       0.00990415 Ry

     iteration #  5     ecut=    50.00 Ry     beta=0.70
     Davidson diagonalization with overlap
     ethr =  2.06E-05,  avg # of iterations =  4.3

     total cpu time spent up to now is      107.8 secs

     total energy              =   -2243.22050264 Ry
     Harris-Foulkes estimate   =   -2243.22243810 Ry
     estimated scf accuracy    <       0.00579490 Ry

     iteration #  6     ecut=    50.00 Ry     beta=0.70
     Davidson diagonalization with overlap
     ethr =  1.21E-05,  avg # of iterations =  3.8

     total cpu time spent up to now is      112.9 secs

     total energy              =   -2243.22148464 Ry
     Harris-Foulkes estimate   =   -2243.22186570 Ry
     estimated scf accuracy    <       0.00148251 Ry

     iteration #  7     ecut=    50.00 Ry     beta=0.70
     Davidson diagonalization with overlap
     ethr =  3.09E-06,  avg # of iterations =  4.2

     total cpu time spent up to now is      118.1 secs

     total energy              =   -2243.22163580 Ry
     Harris-Foulkes estimate   =   -2243.22172288 Ry
     estimated scf accuracy    <       0.00024667 Ry

     iteration #  8     ecut=    50.00 Ry     beta=0.70
     Davidson diagonalization with overlap
     ethr =  5.14E-07,  avg # of iterations =  2.8

     total cpu time spent up to now is      122.8 secs

     total energy              =   -2243.22168417 Ry
     Harris-Foulkes estimate   =   -2243.22168736 Ry
     estimated scf accuracy    <       0.00001218 Ry

     iteration #  9     ecut=    50.00 Ry     beta=0.70
     Davidson diagonalization with overlap
     ethr =  2.54E-08,  avg # of iterations =  3.1

     total cpu time spent up to now is      127.8 secs

     End of self-consistent calculation

          k = 0.0000 0.0000 0.0000 (  5289 PWs)   bands (ev):

   -33.2759 -33.2759 -33.0563 -33.0563 -32.8911 -32.8911 -32.6758 -32.6758
   -14.0622 -14.0622 -13.8628 -13.8628 -13.7181 -13.7181 -13.4417 -13.4417
    -9.9916  -9.9916  -9.9022  -9.9022  -9.7369  -9.7369  -9.5842  -9.5842
    -9.3717  -9.3717  -9.2976  -9.2976  -9.0970  -9.0970  -9.0003  -9.0003
     3.7300   3.7300   5.6334   5.6334   6.2866   6.2866   6.7991   6.7991
     9.0665   9.0665   9.7755   9.7755   9.9626   9.9626  11.3157  11.3157
    11.9358  11.9358  12.0893  12.0893  12.2639  12.2639  12.5740  12.5740
    12.7292  12.7292

          k = 0.0000 0.0000 0.3132 (  5279 PWs)   bands (ev):

   -33.2745 -33.2745 -33.0551 -33.0551 -32.8930 -32.8930 -32.6768 -32.6768
   -14.0582 -14.0518 -13.8427 -13.8405 -13.7283 -13.7236 -13.4653 -13.4638
    -9.9783  -9.9592  -9.9062  -9.8557  -9.7505  -9.7457  -9.5542  -9.4979
    -9.3651  -9.3636  -9.3221  -9.3071  -9.1896  -9.1834  -9.0074  -9.0050
     4.1209   4.1277   5.3429   5.3767   6.3274   6.3420   6.7991   6.8345
     9.0708   9.0854   9.3617   9.3649  10.2188  10.2646  11.2204  11.2627
    11.7554  11.7814  12.0400  12.0672  12.1929  12.2388  12.2850  12.3093
    12.6139  12.6525

          k = 0.0000 0.0000-0.6263 (  5252 PWs)   bands (ev):

   -33.2731 -33.2731 -33.0537 -33.0537 -32.8950 -32.8950 -32.6778 -32.6778
   -14.0488 -14.0488 -13.8133 -13.8133 -13.7369 -13.7369 -13.4905 -13.4905
    -9.9793  -9.9793  -9.8372  -9.8372  -9.6947  -9.6947  -9.4843  -9.4843
    -9.4005  -9.4005  -9.3480  -9.3480  -9.2534  -9.2534  -9.0118  -9.0118
     4.8121   4.8121   5.1844   5.1844   5.6885   5.6885   7.1815   7.1815
     8.7300   8.7300   9.4222   9.4222  10.4330  10.4330  11.1524  11.1524
    11.3640  11.3640  11.9920  11.9920  12.1340  12.1340  12.3871  12.3871
    12.4971  12.4971

          k = 0.0000 0.5773 0.0000 (  5253 PWs)   bands (ev):

   -33.2610 -33.2610 -33.0458 -33.0458 -32.8801 -32.8801 -32.6668 -32.6668
   -14.0747 -14.0730 -13.8881 -13.8833 -13.7369 -13.7273 -13.5329 -13.5214
    -9.9769  -9.9453  -9.9046  -9.8669  -9.7879  -9.7295  -9.6013  -9.5865
    -9.5565  -9.4982  -9.4324  -9.3956  -9.2908  -9.2425  -9.1516  -9.1229
     4.7662   4.8086   5.6686   5.7183   6.3244   6.3856   6.5337   6.6629
     9.6090   9.6255   9.9286  10.0101  10.2833  10.3747  10.8677  10.8977
    11.1970  11.2621  11.7327  11.7674  11.8116  11.8928  12.2120  12.2873
    12.4743  12.5338

          k = 0.0000 0.5773 0.3132 (  5250 PWs)   bands (ev):

   -33.2603 -33.2603 -33.0448 -33.0448 -32.8813 -32.8812 -32.6674 -32.6674
   -14.0715 -14.0670 -13.8765 -13.8718 -13.7483 -13.7371 -13.5462 -13.5321
    -9.9843  -9.9377  -9.9009  -9.8602  -9.7877  -9.6979  -9.6207  -9.6033
    -9.5470  -9.4700  -9.4349  -9.3942  -9.2877  -9.2603  -9.1513  -9.1333
     5.0385   5.0529   5.6146   5.6654   6.1616   6.2523   6.5599   6.6807
     9.7509   9.7655   9.8886   9.9283  10.4306  10.5015  10.7427  10.7516
    11.0763  11.1425  11.3279  11.3856  11.6455  11.7149  12.3630  12.3953
    12.4793  12.5015

          k = 0.0000 0.5773-0.6263 (  5272 PWs)   bands (ev):

   -33.2595 -33.2595 -33.0438 -33.0438 -32.8825 -32.8825 -32.6681 -32.6681
   -14.0677 -14.0607 -13.8615 -13.8571 -13.7594 -13.7510 -13.5625 -13.5423
   -10.0139  -9.9197  -9.8777  -9.8356  -9.7563  -9.7044  -9.6674  -9.6174
    -9.5317  -9.4508  -9.4227  -9.3692  -9.3214  -9.2508  -9.1751  -9.1437
     5.3116   5.3392   5.5744   5.6269   6.0363   6.1000   6.6420   6.7579
     9.6589   9.6726  10.0634  10.0731  10.3184  10.3657  10.5093  10.5138
    11.2145  11.2715  11.3005  11.3314  11.4347  11.4877  11.9986  12.0428
    12.7995  12.8118

          k = 0.0000-1.1547 0.0000 (  5284 PWs)   bands (ev):

   -33.2475 -33.2475 -33.0337 -33.0337 -32.8699 -32.8699 -32.6568 -32.6568
   -14.0932 -14.0932 -13.9085 -13.9085 -13.7758 -13.7758 -13.5979 -13.5979
    -9.9747  -9.9747  -9.9066  -9.9066  -9.7889  -9.7889  -9.7244  -9.7244
    -9.6059  -9.6059  -9.5205  -9.5205  -9.2698  -9.2698  -9.2114  -9.2114
     5.4910   5.4910   5.6347   5.6347   6.3663   6.3663   6.6126   6.6126
     9.4101   9.4101   9.6122   9.6122   9.7582   9.7582   9.8674   9.8674
    11.4832  11.4832  11.7193  11.7193  11.9278  11.9278  12.0977  12.0977
    12.6978  12.6978

          k = 0.0000-1.1547 0.3132 (  5252 PWs)   bands (ev):

   -33.2473 -33.2473 -33.0331 -33.0331 -32.8705 -32.8705 -32.6570 -32.6570
   -14.0957 -14.0928 -13.9086 -13.9027 -13.7871 -13.7804 -13.6042 -13.5996
   -10.0095  -9.9974  -9.9343  -9.9106  -9.8271  -9.8025  -9.7316  -9.7225
    -9.5812  -9.5459  -9.4917  -9.4386  -9.2845  -9.2596  -9.2288  -9.1831
     5.3854   5.4111   5.4427   5.4848   6.5549   6.6589   6.7092   6.7930
     9.1818   9.1986   9.2489   9.2628  10.1478  10.1628  10.2168  10.2323
    11.3414  11.3751  11.4553  11.5000  12.2069  12.2505  12.2841  12.3297
    12.6381  12.6647

          k = 0.0000-1.1547-0.6263 (  5272 PWs)   bands (ev):

   -33.2471 -33.2471 -33.0325 -33.0325 -32.8711 -32.8711 -32.6572 -32.6572
   -14.0952 -14.0952 -13.9028 -13.9028 -13.7917 -13.7917 -13.6060 -13.6060
   -10.0264 -10.0264  -9.9363  -9.9363  -9.8365  -9.8365  -9.7439  -9.7439
    -9.4988  -9.4988  -9.4254  -9.4254  -9.2766  -9.2766  -9.2029  -9.2029
     5.2754   5.2754   5.4279   5.4279   6.6138   6.6138   7.0072   7.0072
     8.9568   8.9568   9.2157   9.2157  10.3934  10.3934  10.4447  10.4447
    11.2113  11.2113  11.2425  11.2425  12.5166  12.5166  12.5775  12.5775
    12.9848  12.9848

          k = 0.2500 0.1443 0.0000 (  5279 PWs)   bands (ev):

   -33.2745 -33.2745 -33.0579 -33.0579 -32.8903 -32.8903 -32.6767 -32.6767
   -14.0578 -14.0566 -13.8660 -13.8641 -13.6997 -13.6916 -13.4651 -13.4599
    -9.9928  -9.9885  -9.8894  -9.8573  -9.7725  -9.6677  -9.5776  -9.4999
    -9.4293  -9.4160  -9.2827  -9.2707  -9.1542  -9.1395  -9.0418  -9.0363
     4.0113   4.0280   5.4445   5.4768   6.2248   6.2717   6.7475   6.8374
     9.1954   9.2774   9.8077   9.8150  10.1947  10.2610  11.2550  11.3028
    11.8454  11.8580  12.0591  12.0773  12.1544  12.1996  12.4914  12.5055
    12.5563  12.5708

          k = 0.2500 0.1443 0.3132 (  5261 PWs)   bands (ev):

   -33.2732 -33.2732 -33.0565 -33.0565 -32.8921 -32.8921 -32.6778 -32.6778
   -14.0486 -14.0450 -13.8464 -13.8446 -13.7114 -13.7061 -13.4861 -13.4777
    -9.9551  -9.9447  -9.8836  -9.8146  -9.7645  -9.6942  -9.5276  -9.5213
    -9.4298  -9.4102  -9.3081  -9.3046  -9.2025  -9.1798  -9.0583  -9.0419
     4.3354   4.3475   5.5239   5.5414   6.1684   6.1715   6.5610   6.6054
     9.3386   9.3703   9.4893   9.5206  10.3545  10.3941  11.2854  11.2970
    11.5016  11.5698  11.8583  11.9066  12.0975  12.1620  12.3955  12.4273
    12.4533  12.4706

          k = 0.2500 0.1443-0.6263 (  5254 PWs)   bands (ev):

   -33.2718 -33.2718 -33.0550 -33.0550 -32.8939 -32.8939 -32.6790 -32.6790
   -14.0391 -14.0354 -13.8222 -13.8191 -13.7275 -13.7200 -13.5074 -13.5004
    -9.9458  -9.9173  -9.8360  -9.7999  -9.7003  -9.6745  -9.5376  -9.5188
    -9.4435  -9.4103  -9.3378  -9.3284  -9.2582  -9.2502  -9.0542  -9.0522
     4.9714   4.9883   5.2232   5.2389   5.7870   5.8020   6.8432   6.8813
     9.1157   9.1402   9.6328   9.6434  10.4961  10.4981  10.8086  10.8311
    11.2458  11.2809  11.9174  11.9663  12.1092  12.1315  12.1756  12.2423
    12.3039  12.3680

          k = 0.2500 0.7217 0.0000 (  5270 PWs)   bands (ev):

   -33.2603 -33.2603 -33.0466 -33.0466 -32.8797 -32.8797 -32.6672 -32.6672
   -14.0723 -14.0709 -13.8889 -13.8849 -13.7235 -13.7172 -13.5474 -13.5351
    -9.9736  -9.9467  -9.8860  -9.8415  -9.8080  -9.7047  -9.6565  -9.5961
    -9.5230  -9.5060  -9.4483  -9.3714  -9.2473  -9.2207  -9.2078  -9.1517
     5.1682   5.2014   5.3807   5.4290   6.2271   6.2931   6.4682   6.5973
     9.7115   9.7769   9.9325   9.9850  10.3141  10.3274  10.5674  10.5851
    11.3450  11.4092  11.6535  11.7045  11.7720  11.8194  12.0410  12.1237
    12.2480  12.3078

          k = 0.2500 0.7217 0.3132 (  5250 PWs)   bands (ev):

   -33.2596 -33.2596 -33.0456 -33.0456 -32.8808 -32.8808 -32.6679 -32.6679
   -14.0676 -14.0638 -13.8790 -13.8750 -13.7376 -13.7291 -13.5581 -13.5431
    -9.9555  -9.9504  -9.8855  -9.8443  -9.7767  -9.7178  -9.6624  -9.6196
    -9.5133  -9.4916  -9.4271  -9.3774  -9.2561  -9.2324  -9.2143  -9.1451
     5.2170   5.2548   5.4676   5.4923   6.1464   6.2235   6.5687   6.6924
     9.7712   9.8019  10.0144  10.0438  10.2484  10.3109  10.5577  10.5908
    11.0558  11.1074  11.3320  11.4094  11.9805  12.0606  12.0787  12.1359
    12.2799  12.3453

          k = 0.2500 0.7217-0.6263 (  5252 PWs)   bands (ev):

   -33.2589 -33.2588 -33.0445 -33.0445 -32.8820 -32.8820 -32.6687 -32.6687
   -14.0619 -14.0553 -13.8666 -13.8625 -13.7539 -13.7435 -13.5699 -13.5521
    -9.9533  -9.9165  -9.8563  -9.8500  -9.7759  -9.7394  -9.6845  -9.6526
    -9.4864  -9.4591  -9.4035  -9.3711  -9.2921  -9.2460  -9.2195  -9.1476
     5.3820   5.4129   5.4968   5.5261   6.1356   6.1914   6.5664   6.6571
     9.6963   9.7332   9.9896  10.0157  10.5496  10.5782  10.6822  10.6996
    10.7521  10.7665  11.0477  11.0898  11.7264  11.7841  11.8022  11.8724
    12.8946  12.9225

          k = 0.2500-1.0104 0.0000 (  5254 PWs)   bands (ev):

   -33.2475 -33.2475 -33.0337 -33.0337 -32.8699 -32.8699 -32.6568 -32.6568
   -14.0923 -14.0922 -13.9094 -13.9088 -13.7722 -13.7716 -13.5956 -13.5954
    -9.9714  -9.9614  -9.8988  -9.8868  -9.8056  -9.7734  -9.7056  -9.6992
    -9.6384  -9.5817  -9.5661  -9.4593  -9.3305  -9.2964  -9.2405  -9.2390
     5.5564   5.5812   5.6798   5.7075   6.3192   6.3808   6.5167   6.5783
     9.6789   9.7349   9.8174   9.8416   9.9425   9.9485  10.0631  10.1020
    11.3045  11.3330  11.4894  11.5060  11.8851  11.9125  12.1402  12.1550
    12.6642  12.7063

          k = 0.2500-1.0104 0.3132 (  5260 PWs)   bands (ev):

   -33.2473 -33.2473 -33.0331 -33.0331 -32.8705 -32.8705 -32.6570 -32.6570
   -14.0944 -14.0917 -13.9085 -13.9027 -13.7836 -13.7771 -13.6017 -13.5973
   -10.0080  -9.9952  -9.9183  -9.8956  -9.8304  -9.8012  -9.7064  -9.6796
    -9.5986  -9.5725  -9.5075  -9.3900  -9.3484  -9.2880  -9.2557  -9.2043
     5.4503   5.4684   5.5165   5.5310   6.5770   6.6244   6.7028   6.7521
     9.4733   9.5109   9.5714   9.6047  10.3358  10.3632  10.4263  10.4488
    11.0146  11.0441  11.1583  11.1942  11.9639  12.0048  12.1428  12.1744
    12.6910  12.6935

          k = 0.2500-1.0104-0.6263 (  5260 PWs)   bands (ev):

   -33.2471 -33.2471 -33.0325 -33.0325 -32.8711 -32.8711 -32.6572 -32.6572
   -14.0938 -14.0937 -13.9016 -13.9012 -13.7898 -13.7893 -13.6039 -13.6037
   -10.0316 -10.0250  -9.9206  -9.9150  -9.8433  -9.8316  -9.7161  -9.6814
    -9.5492  -9.5418  -9.4557  -9.3898  -9.3204  -9.2925  -9.2204  -9.2116
     5.4033   5.4292   5.5329   5.5731   6.5139   6.5526   6.8121   6.8594
     9.3179   9.3430   9.5027   9.5576  10.5671  10.5839  10.5995  10.6114
    11.1123  11.1432  11.1873  11.2257  11.9307  11.9423  11.9669  11.9923
    12.9350  12.9692

          k = 0.2500-0.4330 0.0000 (  5251 PWs)   bands (ev):

   -33.2618 -33.2618 -33.0451 -33.0451 -32.8805 -32.8805 -32.6663 -32.6663
   -14.0768 -14.0756 -13.8867 -13.8826 -13.7465 -13.7384 -13.5203 -13.5086
    -9.9757  -9.9499  -9.9300  -9.8797  -9.7859  -9.7027  -9.6022  -9.5652
    -9.5440  -9.5094  -9.4772  -9.4228  -9.2791  -9.2014  -9.1525  -9.1101
     4.5578   4.5919   5.7387   5.7843   6.4341   6.4846   6.6095   6.7180
     9.5219   9.5893  10.0985  10.1262  10.1770  10.3565  11.0827  11.1793
    11.3191  11.3395  11.6539  11.6964  11.9038  11.9275  12.0052  12.0411
    12.7207  12.8273

          k = 0.2500-0.4330 0.3132 (  5259 PWs)   bands (ev):

   -33.2609 -33.2609 -33.0441 -33.0441 -32.8818 -32.8818 -32.6669 -32.6669
   -14.0744 -14.0702 -13.8728 -13.8695 -13.7535 -13.7478 -13.5372 -13.5215
   -10.0078  -9.9340  -9.8965  -9.8756  -9.8020  -9.6866  -9.6056  -9.5663
    -9.5315  -9.5051  -9.4492  -9.3903  -9.3043  -9.2537  -9.1486  -9.1194
     4.8551   4.8831   5.6798   5.7228   6.2652   6.3827   6.6318   6.7444
     9.6061   9.6460   9.8628   9.9306  10.4437  10.5254  10.9067  11.0507
    11.0882  11.1059  11.3373  11.3882  11.6240  11.7491  12.2270  12.2776
    12.6603  12.7016

          k = 0.2500-0.4330-0.6263 (  5266 PWs)   bands (ev):

   -33.2601 -33.2601 -33.0432 -33.0431 -32.8830 -32.8830 -32.6675 -32.6675
   -14.0732 -14.0659 -13.8568 -13.8518 -13.7641 -13.7584 -13.5551 -13.5337
   -10.0506  -9.9376  -9.8886  -9.8271  -9.7517  -9.6620  -9.6546  -9.5847
    -9.5457  -9.4745  -9.4581  -9.3638  -9.3076  -9.2663  -9.1478  -9.1402
     5.2369   5.2637   5.6632   5.6960   5.9845   6.0467   6.6779   6.7858
     9.6143   9.6204   9.9936  10.0324  10.4541  10.5135  10.6376  10.6694
    11.0622  11.1489  11.3376  11.3676  11.4389  11.6005  12.0078  12.0721
    12.6893  12.7105

          k =-0.5000-0.2887 0.0000 (  5254 PWs)   bands (ev):

   -33.2730 -33.2730 -33.0594 -33.0594 -32.8894 -32.8894 -32.6776 -32.6776
   -14.0520 -14.0520 -13.8675 -13.8675 -13.6682 -13.6682 -13.4883 -13.4883
    -9.9898  -9.9898  -9.8575  -9.8575  -9.6856  -9.6856  -9.5183  -9.5183
    -9.4099  -9.4099  -9.2622  -9.2622  -9.2444  -9.2444  -9.0668  -9.0668
     4.6044   4.6044   4.9099   4.9099   6.3395   6.3395   6.7255   6.7255
     9.5192   9.5192   9.8347   9.8347  10.7705  10.7705  11.1480  11.1480
    11.4330  11.4330  11.6595  11.6595  12.1123  12.1123  12.3877  12.3877
    12.5392  12.5392

          k =-0.5000-0.2887 0.3132 (  5256 PWs)   bands (ev):

   -33.2718 -33.2718 -33.0579 -33.0579 -32.8911 -32.8911 -32.6788 -32.6788
   -14.0413 -14.0364 -13.8510 -13.8499 -13.6868 -13.6857 -13.5053 -13.5010
    -9.9492  -9.9339  -9.8437  -9.8080  -9.6759  -9.6688  -9.5641  -9.5496
    -9.4185  -9.4123  -9.3378  -9.3018  -9.2370  -9.2240  -9.0966  -9.0693
     4.7883   4.8041   5.1244   5.1542   6.1016   6.1833   6.6501   6.7175
     9.6280   9.6524   9.7659   9.7823  10.5559  10.5737  10.8571  10.8779
    11.2271  11.2519  11.4932  11.5248  12.1970  12.2155  12.3159  12.3411
    12.5050  12.5270

          k =-0.5000-0.2887-0.6263 (  5256 PWs)   bands (ev):

   -33.2706 -33.2706 -33.0564 -33.0564 -32.8928 -32.8928 -32.6801 -32.6801
   -14.0247 -14.0247 -13.8295 -13.8295 -13.7081 -13.7081 -13.5192 -13.5192
    -9.8781  -9.8781  -9.7761  -9.7761  -9.6890  -9.6890  -9.6054  -9.6054
    -9.4297  -9.4297  -9.3057  -9.3057  -9.2754  -9.2754  -9.0964  -9.0964
     5.1899   5.1899   5.2641   5.2641   5.9589   5.9589   6.5081   6.5081
     9.6225   9.6225  10.0238  10.0238  10.4123  10.4123  10.5245  10.5245
    11.0398  11.0398  11.5050  11.5050  11.9364  11.9364  12.0258  12.0258
    12.7721  12.7721

          k =-0.5000 0.2887 0.0000 (  5253 PWs)   bands (ev):

   -33.2610 -33.2610 -33.0458 -33.0458 -32.8801 -32.8801 -32.6667 -32.6667
   -14.0745 -14.0733 -13.8876 -13.8839 -13.7359 -13.7286 -13.5334 -13.5207
    -9.9728  -9.9495  -9.9024  -9.8660  -9.7980  -9.7248  -9.6030  -9.5911
    -9.5562  -9.4940  -9.4316  -9.3944  -9.2852  -9.2429  -9.1520  -9.1241
     4.7554   4.7905   5.6742   5.7148   6.3205   6.3898   6.5264   6.6557
     9.6407   9.6770   9.9461  10.0342  10.3015  10.3709  10.8789  10.8976
    11.1833  11.2403  11.6641  11.7264  11.9216  11.9771  12.2093  12.2716
    12.4724  12.5183

          k =-0.5000 0.2887 0.3132 (  5250 PWs)   bands (ev):

   -33.2603 -33.2603 -33.0449 -33.0448 -32.8813 -32.8813 -32.6674 -32.6674
   -14.0718 -14.0673 -13.8767 -13.8724 -13.7445 -13.7396 -13.5483 -13.5299
    -9.9838  -9.9446  -9.8903  -9.8658  -9.8045  -9.7023  -9.6369  -9.5621
    -9.5511  -9.4840  -9.4194  -9.3770  -9.2930  -9.2471  -9.1811  -9.1270
     4.8868   4.9060   5.6659   5.6991   6.3284   6.3962   6.5807   6.6961
     9.6446   9.6803  10.0347  10.0495  10.3589  10.4572  10.6944  10.7165
    11.1039  11.1667  11.3678  11.4028  11.6678  11.7306  12.2511  12.2853
    12.4680  12.5129

          k =-0.5000 0.2887-0.6263 (  5272 PWs)   bands (ev):

   -33.2595 -33.2595 -33.0438 -33.0438 -32.8825 -32.8825 -32.6681 -32.6681
   -14.0678 -14.0607 -13.8619 -13.8564 -13.7599 -13.7509 -13.5624 -13.5424
   -10.0117  -9.9237  -9.8763  -9.8384  -9.7536  -9.7057  -9.6679  -9.6169
    -9.5356  -9.4487  -9.4213  -9.3720  -9.3172  -9.2502  -9.1755  -9.1422
     5.2660   5.2874   5.6175   5.6581   6.0757   6.1327   6.5918   6.6876
     9.6845   9.7033  10.1331  10.1492  10.3304  10.3970  10.5179  10.5289
    11.2009  11.2484  11.2764  11.3315  11.4588  11.5263  11.9872  12.0277
    12.7089  12.7297

          k =-0.5000-1.4434 0.0000 (  5252 PWs)   bands (ev):

   -33.2475 -33.2475 -33.0338 -33.0338 -32.8698 -32.8698 -32.6568 -32.6568
   -14.0913 -14.0913 -13.9096 -13.9096 -13.7681 -13.7681 -13.5931 -13.5931
    -9.9565  -9.9565  -9.8758  -9.8758  -9.7899  -9.7899  -9.7089  -9.7089
    -9.6114  -9.6114  -9.4666  -9.4666  -9.3695  -9.3695  -9.2731  -9.2731
     5.6653   5.6653   5.7489   5.7489   6.3300   6.3300   6.4692   6.4692
     9.9951   9.9951  10.1544  10.1544  10.2699  10.2699  10.3897  10.3897
    11.0755  11.0755  11.2100  11.2100  11.9741  11.9741  12.1846  12.1846
    12.4566  12.4566

          k =-0.5000-1.4434 0.3132 (  5244 PWs)   bands (ev):

   -33.2473 -33.2473 -33.0332 -33.0332 -32.8705 -32.8705 -32.6570 -32.6570
   -14.0931 -14.0905 -13.9082 -13.9022 -13.7807 -13.7740 -13.5995 -13.5953
   -10.0094  -9.9814  -9.9057  -9.8831  -9.8128  -9.7855  -9.7140  -9.6533
    -9.5964  -9.5911  -9.4690  -9.4643  -9.3377  -9.3363  -9.2797  -9.2310
     5.6141   5.6558   5.7144   5.7365   6.3451   6.3846   6.5337   6.5775
     9.9878  10.0263  10.1188  10.1320  10.4007  10.4410  10.4737  10.4875
    11.0821  11.1026  11.2095  11.2303  11.6446  11.6509  11.7706  11.7797
    12.4619  12.4865

          k =-0.5000-1.4434-0.6263 (  5288 PWs)   bands (ev):

   -33.2471 -33.2471 -33.0325 -33.0325 -32.8711 -32.8711 -32.6572 -32.6572
   -14.0923 -14.0923 -13.9000 -13.9000 -13.7873 -13.7873 -13.6016 -13.6016
   -10.0277 -10.0277  -9.9118  -9.9118  -9.8129  -9.8129  -9.6632  -9.6632
    -9.5827  -9.5827  -9.4482  -9.4482  -9.3203  -9.3203  -9.2324  -9.2324
     5.5928   5.5928   5.7180   5.7180   6.4028   6.4028   6.6440   6.6440
     9.9365   9.9365  10.2033  10.2033  10.3752  10.3752  10.5839  10.5839
    11.1954  11.1954  11.3110  11.3110  11.3617  11.3617  11.5229  11.5229
    12.7618  12.7618

          k = 0.0000-0.5773 0.3132 (  5250 PWs)   bands (ev):

   -33.2602 -33.2602 -33.0448 -33.0448 -32.8813 -32.8813 -32.6675 -32.6674
   -14.0709 -14.0665 -13.8756 -13.8723 -13.7451 -13.7396 -13.5484 -13.5312
    -9.9820  -9.9363  -9.8890  -9.8642  -9.7989  -9.7044  -9.6371  -9.5549
    -9.5510  -9.4955  -9.4264  -9.3764  -9.3031  -9.2526  -9.1774  -9.1262
     4.9564   4.9805   5.6206   5.6680   6.3278   6.4107   6.5870   6.6920
     9.5864   9.6115   9.9347   9.9635  10.3709  10.4682  10.6848  10.7150
    11.0826  11.1692  11.4129  11.4520  11.6333  11.6932  12.2617  12.2962
    12.4914  12.5353

          k =-0.2500-0.1443 0.3132 (  5261 PWs)   bands (ev):

   -33.2732 -33.2732 -33.0565 -33.0565 -32.8921 -32.8921 -32.6778 -32.6778
   -14.0514 -14.0435 -13.8469 -13.8451 -13.7128 -13.7013 -13.4843 -13.4806
    -9.9683  -9.9389  -9.8804  -9.8456  -9.7466  -9.6831  -9.5481  -9.4824
    -9.4273  -9.3904  -9.3153  -9.2913  -9.2198  -9.2173  -9.0486  -9.0373
     4.3989   4.4129   5.1777   5.2056   6.2897   6.3426   6.8262   6.8762
     9.2687   9.3158   9.5433   9.5596  10.3440  10.3866  10.9234  10.9648
    11.6371  11.6620  11.7765  11.8085  12.2413  12.2846  12.3612  12.3657
    12.5193  12.5388

          k =-0.2500-0.7217 0.3132 (  5250 PWs)   bands (ev):

   -33.2595 -33.2595 -33.0455 -33.0455 -32.8808 -32.8808 -32.6680 -32.6680
   -14.0666 -14.0630 -13.8780 -13.8747 -13.7379 -13.7300 -13.5585 -13.5439
    -9.9506  -9.9407  -9.8825  -9.8469  -9.7748  -9.7203  -9.6610  -9.6182
    -9.5211  -9.4971  -9.4303  -9.3809  -9.2555  -9.2380  -9.2116  -9.1441
     5.2749   5.3163   5.4631   5.5073   6.1492   6.2249   6.5015   6.6362
     9.7556   9.7898   9.9986  10.0185  10.2421  10.2855  10.5844  10.6345
    11.0342  11.0964  11.3310  11.4087  11.9420  12.0139  12.0823  12.1671
    12.2830  12.3368

          k =-0.2500 1.0104 0.3132 (  5260 PWs)   bands (ev):

   -33.2473 -33.2473 -33.0331 -33.0331 -32.8705 -32.8705 -32.6570 -32.6570
   -14.0943 -14.0916 -13.9083 -13.9022 -13.7841 -13.7773 -13.6019 -13.5976
   -10.0125  -9.9858  -9.9204  -9.8918  -9.8256  -9.7931  -9.7245  -9.6766
    -9.6052  -9.5587  -9.4971  -9.4567  -9.3030  -9.2942  -9.2482  -9.2069
     5.5340   5.5741   5.6190   5.6710   6.3608   6.4369   6.5599   6.6273
     9.4929   9.5087   9.5805   9.6025  10.3144  10.3232  10.3734  10.3868
    11.2919  11.3430  11.5207  11.5840  11.8383  11.8641  12.0710  12.1076
    12.5019  12.5425

          k =-0.2500 0.4330 0.3132 (  5259 PWs)   bands (ev):

   -33.2610 -33.2610 -33.0441 -33.0441 -32.8817 -32.8817 -32.6669 -32.6669
   -14.0753 -14.0706 -13.8744 -13.8695 -13.7533 -13.7474 -13.5369 -13.5202
   -10.0093  -9.9407  -9.9001  -9.8762  -9.8039  -9.6868  -9.6070  -9.5658
    -9.5305  -9.5021  -9.4455  -9.3910  -9.2936  -9.2482  -9.1508  -9.1208
     4.8072   4.8139   5.7155   5.7569   6.3283   6.4185   6.5823   6.7018
     9.6667   9.7123   9.8835   9.9476  10.4321  10.5144  10.9519  11.0237
    11.0675  11.1208  11.2871  11.3117  11.6189  11.7313  12.2326  12.2848
    12.6382  12.6884

          k = 0.5000-0.2887 0.3132 (  5250 PWs)   bands (ev):

   -33.2602 -33.2602 -33.0448 -33.0448 -32.8813 -32.8813 -32.6674 -32.6674
   -14.0704 -14.0667 -13.8751 -13.8717 -13.7484 -13.7382 -13.5467 -13.5328
    -9.9802  -9.9294  -9.8974  -9.8615  -9.7895  -9.6975  -9.6246  -9.6028
    -9.5513  -9.4701  -9.4380  -9.3977  -9.2873  -9.2644  -9.1519  -9.1311
     5.0683   5.1035   5.6240   5.6723   6.1160   6.2148   6.5460   6.6555
     9.7376   9.7569   9.8994   9.9353  10.4386  10.4874  10.8064  10.8191
    11.0993  11.1296  11.3478  11.4064  11.6836  11.7597  12.2952  12.3531
    12.4799  12.4844

     the Fermi energy is    11.0455 ev

!    total energy              =   -2243.22168639 Ry
     Harris-Foulkes estimate   =   -2243.22168700 Ry
     estimated scf accuracy    <       0.00000077 Ry

     total all-electron energy =    -90247.565080 Ry

     The total energy is the sum of the following terms:

     one-electron contribution =     -43.05323085 Ry
     hartree contribution      =      42.60942468 Ry
     xc contribution           =    -254.57608458 Ry
     ewald contribution        =    -240.13757325 Ry
     one-center paw contrib.   =   -1748.06096145 Ry
     smearing contrib. (-TS)   =      -0.00326095 Ry

     convergence has been achieved in   9 iterations

     Forces acting on atoms (cartesian axes, Ry/au):

     atom    1 type  1   force =    -0.00788253   -0.00327786   -0.07226010
     atom    2 type  1   force =     0.02779436   -0.00663037   -0.06123679
     atom    3 type  1   force =    -0.00149011   -0.00222549   -0.05659439
     atom    4 type  1   force =    -0.00398286   -0.01395786   -0.05068167
     atom    5 type  2   force =     0.00820858    0.00035707    0.14102701
     atom    6 type  2   force =    -0.02429396   -0.01299156    0.13504468
     atom    7 type  2   force =     0.00476393    0.02756717   -0.02155621
     atom    8 type  2   force =    -0.00311742    0.01115891   -0.01374253

     Total force =     0.237430     Total SCF correction =     0.001651


     Computing stress (Cartesian axis) and pressure

     Message from routine stres:
     noncollinear stress + GGA not implemented

     number of scf cycles    =   2
     number of bfgs steps    =   1

     enthalpy old            =   -2242.5146542142 Ry
     enthalpy new            =   -2243.2216863892 Ry

     CASE: enthalpy_new < enthalpy_old

     new trust radius        =       0.1232081065 bohr
     new conv_thr            =       0.0000010000 Ry

     new unit-cell volume =    880.86361 a.u.^3 (   130.53052 Ang^3 )
     density =      8.05309 g/cm^3

CELL_PARAMETERS (angstrom)
   7.227900000   0.000000000   0.000000000
  -1.807000000   3.129800000   0.000000000
   0.000000000   0.000000000   5.770100000

ATOMIC_POSITIONS (crystal)
Gd       0.331228253   0.335596569   0.701421418
Gd       0.844817591   0.342544548   0.703825976
Gd       0.166507964   0.666372338   0.243681271
Gd       0.665062651   0.662775377   0.243237852
H        0.340042632   0.308799284   1.025821450
H        0.768818767   0.252515765   1.017128737
H        0.954676193   0.919879210   0.507257736
H        0.510945948   0.974916909   0.497825561



     Writing output data file 2308.save
     NEW-OLD atomic charge density approx. for the potential

     total cpu time spent up to now is      131.2 secs

     per-process dynamical memory:   128.7 Mb

     Self-consistent Calculation

     iteration #  1     ecut=    50.00 Ry     beta=0.70
     Davidson diagonalization with overlap
     ethr =  1.00E-06,  avg # of iterations =  9.0

     total cpu time spent up to now is      142.3 secs

     total energy              =   -2243.26105447 Ry
     Harris-Foulkes estimate   =   -2243.27489191 Ry
     estimated scf accuracy    <       0.00466337 Ry

     iteration #  2     ecut=    50.00 Ry     beta=0.70
     Davidson diagonalization with overlap
     ethr =  9.72E-06,  avg # of iterations =  5.2

     total cpu time spent up to now is      149.1 secs

     total energy              =   -2243.25799986 Ry
     Harris-Foulkes estimate   =   -2243.26814070 Ry
     estimated scf accuracy    <       0.03696163 Ry

     iteration #  3     ecut=    50.00 Ry     beta=0.70
     Davidson diagonalization with overlap
     ethr =  9.72E-06,  avg # of iterations =  5.1

     total cpu time spent up to now is      155.7 secs

     total energy              =   -2243.26299614 Ry
     Harris-Foulkes estimate   =   -2243.26328892 Ry
     estimated scf accuracy    <       0.00072206 Ry

     iteration #  4     ecut=    50.00 Ry     beta=0.70
     Davidson diagonalization with overlap
     ethr =  1.50E-06,  avg # of iterations =  3.2

     total cpu time spent up to now is      160.7 secs

     total energy              =   -2243.26303526 Ry
     Harris-Foulkes estimate   =   -2243.26322344 Ry
     estimated scf accuracy    <       0.00048681 Ry

     iteration #  5     ecut=    50.00 Ry     beta=0.70
     Davidson diagonalization with overlap
     ethr =  1.01E-06,  avg # of iterations =  2.7

     total cpu time spent up to now is      165.5 secs

     total energy              =   -2243.26310194 Ry
     Harris-Foulkes estimate   =   -2243.26315739 Ry
     estimated scf accuracy    <       0.00017802 Ry

     iteration #  6     ecut=    50.00 Ry     beta=0.70
     Davidson diagonalization with overlap
     ethr =  3.71E-07,  avg # of iterations =  2.1

     total cpu time spent up to now is      169.9 secs

     total energy              =   -2243.26312852 Ry
     Harris-Foulkes estimate   =   -2243.26313761 Ry
     estimated scf accuracy    <       0.00002707 Ry

     iteration #  7     ecut=    50.00 Ry     beta=0.70
     Davidson diagonalization with overlap
     ethr =  5.64E-08,  avg # of iterations =  2.0

     total cpu time spent up to now is      174.3 secs

     End of self-consistent calculation

          k = 0.0000 0.0000 0.0000 (  5289 PWs)   bands (ev):

   -33.2496 -33.2496 -33.0107 -33.0107 -32.9262 -32.9262 -32.7158 -32.7158
   -14.0385 -14.0385 -13.8299 -13.8299 -13.7328 -13.7328 -13.4548 -13.4548
    -9.9698  -9.9698  -9.8741  -9.8741  -9.7214  -9.7214  -9.5781  -9.5781
    -9.3397  -9.3397  -9.3013  -9.3013  -9.0842  -9.0842  -9.0286  -9.0286
     3.7165   3.7165   5.6320   5.6320   6.2470   6.2470   6.7311   6.7311
     9.1215   9.1215   9.7862   9.7862   9.9711   9.9711  11.3488  11.3488
    11.9529  11.9529  12.1235  12.1235  12.2990  12.2990  12.6368  12.6368
    12.7290  12.7290

          k = 0.0000 0.0000 0.3132 (  5279 PWs)   bands (ev):

   -33.2479 -33.2479 -33.0087 -33.0087 -32.9288 -32.9288 -32.7170 -32.7170
   -14.0331 -14.0268 -13.8128 -13.8080 -13.7388 -13.7371 -13.4809 -13.4794
    -9.9552  -9.9349  -9.8848  -9.8306  -9.7410  -9.7300  -9.5338  -9.4905
    -9.3464  -9.3303  -9.3092  -9.3077  -9.1793  -9.1759  -9.0372  -9.0346
     4.1035   4.1099   5.3420   5.3772   6.2648   6.2775   6.7450   6.7827
     9.1145   9.1359   9.4188   9.4220  10.2326  10.2821  11.2522  11.2910
    11.8085  11.8350  12.0466  12.0754  12.1966  12.2426  12.2961  12.3213
    12.5970  12.6418

          k = 0.0000 0.0000-0.6263 (  5252 PWs)   bands (ev):

   -33.2462 -33.2462 -33.0066 -33.0066 -32.9316 -32.9316 -32.7183 -32.7183
   -14.0223 -14.0223 -13.7854 -13.7854 -13.7430 -13.7430 -13.5102 -13.5102
    -9.9550  -9.9550  -9.8250  -9.8250  -9.6717  -9.6717  -9.4627  -9.4627
    -9.3938  -9.3938  -9.3179  -9.3179  -9.2552  -9.2552  -9.0427  -9.0427
     4.7964   4.7964   5.1853   5.1853   5.6154   5.6154   7.1245   7.1245
     8.7507   8.7507   9.5766   9.5766  10.4415  10.4415  11.1490  11.1490
    11.3562  11.3562  11.9910  11.9910  12.1349  12.1349  12.3888  12.3888
    12.4963  12.4963

          k = 0.0000 0.5773 0.0000 (  5253 PWs)   bands (ev):

   -33.2344 -33.2344 -32.9997 -32.9997 -32.9154 -32.9154 -32.7070 -32.7070
   -14.0516 -14.0490 -13.8564 -13.8494 -13.7484 -13.7387 -13.5497 -13.5401
    -9.9544  -9.9223  -9.8803  -9.8403  -9.7633  -9.7086  -9.5883  -9.5661
    -9.5369  -9.5048  -9.4278  -9.3943  -9.2959  -9.2564  -9.1512  -9.1312
     4.7726   4.8059   5.6941   5.7464   6.2695   6.3334   6.4722   6.6039
     9.6161   9.6389   9.9229  10.0055  10.2817  10.3702  10.8709  10.9035
    11.1944  11.2596  11.7454  11.7915  11.8368  11.9161  12.2105  12.2749
    12.4768  12.5321

          k = 0.0000 0.5773 0.3132 (  5250 PWs)   bands (ev):

   -33.2336 -33.2335 -32.9981 -32.9981 -32.9173 -32.9173 -32.7078 -32.7078
   -14.0472 -14.0424 -13.8435 -13.8357 -13.7614 -13.7487 -13.5649 -13.5521
    -9.9614  -9.9183  -9.8778  -9.8336  -9.7660  -9.6752  -9.6039  -9.5791
    -9.5330  -9.4742  -9.4236  -9.3959  -9.2901  -9.2680  -9.1592  -9.1458
     5.0524   5.0609   5.6409   5.6917   6.1074   6.2031   6.4890   6.6153
     9.7563   9.7670   9.8938   9.9300  10.4230  10.4885  10.7450  10.7531
    11.0850  11.1467  11.3541  11.4171  11.6547  11.7233  12.3625  12.3990
    12.4746  12.4991

          k = 0.0000 0.5773-0.6263 (  5272 PWs)   bands (ev):

   -33.2326 -33.2326 -32.9963 -32.9963 -32.9193 -32.9192 -32.7087 -32.7087
   -14.0426 -14.0351 -13.8229 -13.8199 -13.7729 -13.7664 -13.5837 -13.5640
    -9.9919  -9.9043  -9.8533  -9.8126  -9.7318  -9.6822  -9.6520  -9.5972
    -9.5188  -9.4389  -9.4136  -9.3716  -9.3151  -9.2451  -9.1981  -9.1648
     5.3205   5.3576   5.6031   5.6543   5.9735   6.0421   6.5754   6.6973
     9.6733   9.6869  10.0683  10.0777  10.3056  10.3505  10.5167  10.5207
    11.2224  11.2801  11.3106  11.3457  11.4355  11.4877  12.0064  12.0489
    12.8178  12.8280

          k = 0.0000-1.1547 0.0000 (  5284 PWs)   bands (ev):

   -33.2206 -33.2206 -32.9872 -32.9872 -32.9055 -32.9055 -32.6974 -32.6974
   -14.0687 -14.0687 -13.8746 -13.8746 -13.7863 -13.7863 -13.6203 -13.6203
    -9.9523  -9.9523  -9.8819  -9.8819  -9.7682  -9.7682  -9.7134  -9.7134
    -9.5993  -9.5993  -9.5196  -9.5196  -9.2645  -9.2645  -9.2193  -9.2193
     5.4975   5.4975   5.6208   5.6208   6.3476   6.3476   6.5754   6.5754
     9.4134   9.4134   9.6054   9.6054   9.7581   9.7581   9.8676   9.8676
    11.5122  11.5122  11.7346  11.7346  11.9441  11.9441  12.1117  12.1117
    12.7198  12.7198

          k = 0.0000-1.1547 0.3132 (  5252 PWs)   bands (ev):

   -33.2204 -33.2204 -32.9860 -32.9860 -32.9067 -32.9067 -32.6976 -32.6976
   -14.0710 -14.0682 -13.8726 -13.8652 -13.8011 -13.7930 -13.6266 -13.6221
    -9.9885  -9.9760  -9.9129  -9.8855  -9.8095  -9.7822  -9.7266  -9.7121
    -9.5690  -9.5250  -9.4954  -9.4325  -9.2858  -9.2516  -9.2383  -9.1921
     5.3819   5.3977   5.4476   5.4803   6.5525   6.6481   6.6859   6.7644
     9.1555   9.1739   9.2291   9.2399  10.1551  10.1705  10.2270  10.2434
    11.3747  11.4047  11.4677  11.5107  12.2318  12.2700  12.2971  12.3490
    12.6298  12.6615

          k = 0.0000-1.1547-0.6263 (  5272 PWs)   bands (ev):

   -33.2201 -33.2201 -32.9848 -32.9848 -32.9079 -32.9079 -32.6978 -32.6978
   -14.0704 -14.0704 -13.8618 -13.8618 -13.8091 -13.8091 -13.6285 -13.6285
   -10.0060 -10.0060  -9.9143  -9.9143  -9.8203  -9.8203  -9.7340  -9.7340
    -9.4821  -9.4821  -9.4179  -9.4179  -9.2757  -9.2757  -9.2141  -9.2141
     5.2793   5.2793   5.4103   5.4103   6.6474   6.6474   6.9729   6.9729
     8.9334   8.9334   9.1528   9.1528  10.4097  10.4097  10.4602  10.4602
    11.2297  11.2297  11.2498  11.2498  12.4934  12.4934  12.5729  12.5729
    13.0135  13.0135

          k = 0.2500 0.1443 0.0000 (  5279 PWs)   bands (ev):

   -33.2482 -33.2482 -33.0121 -33.0121 -32.9255 -32.9255 -32.7166 -32.7166
   -14.0347 -14.0339 -13.8339 -13.8314 -13.7114 -13.7039 -13.4793 -13.4748
    -9.9708  -9.9672  -9.8603  -9.8317  -9.7472  -9.6398  -9.5865  -9.5008
    -9.3949  -9.3872  -9.2830  -9.2748  -9.1517  -9.1357  -9.0616  -9.0548
     4.0032   4.0149   5.4529   5.4794   6.1750   6.2252   6.6833   6.7745
     9.2327   9.3157   9.8157   9.8269  10.2006  10.2627  11.2950  11.3382
    11.8527  11.8682  12.0781  12.0927  12.2372  12.2812  12.4727  12.4934
    12.5711  12.5836

          k = 0.2500 0.1443 0.3132 (  5261 PWs)   bands (ev):

   -33.2466 -33.2466 -33.0100 -33.0100 -32.9280 -32.9280 -32.7180 -32.7180
   -14.0247 -14.0206 -13.8149 -13.8096 -13.7247 -13.7168 -13.5025 -13.4947
    -9.9344  -9.9210  -9.8597  -9.7869  -9.7487  -9.6710  -9.5210  -9.5110
    -9.4035  -9.3794  -9.3074  -9.3028  -9.2024  -9.1709  -9.0862  -9.0657
     4.3241   4.3345   5.5366   5.5615   6.1099   6.1147   6.4880   6.5364
     9.3927   9.4129   9.5017   9.5395  10.3654  10.4082  11.3172  11.3326
    11.5550  11.6187  11.8872  11.9313  12.0881  12.1514  12.4098  12.4405
    12.4611  12.4829

          k = 0.2500 0.1443-0.6263 (  5254 PWs)   bands (ev):

   -33.2450 -33.2450 -33.0078 -33.0078 -32.9306 -32.9306 -32.7194 -32.7194
   -14.0130 -14.0099 -13.7869 -13.7848 -13.7391 -13.7315 -13.5276 -13.5208
    -9.9210  -9.8952  -9.8191  -9.7836  -9.6743  -9.6531  -9.5150  -9.4978
    -9.4280  -9.3922  -9.3290  -9.3131  -9.2576  -9.2518  -9.0827  -9.0811
     4.9637   4.9865   5.2298   5.2416   5.7155   5.7305   6.7763   6.8139
     9.1378   9.1651   9.7505   9.7591  10.5111  10.5122  10.7907  10.8142
    11.2540  11.2944  11.9308  11.9697  12.1165  12.1345  12.1842  12.2415
    12.3176  12.3707

          k = 0.2500 0.7217 0.0000 (  5270 PWs)   bands (ev):

   -33.2337 -33.2337 -33.0004 -33.0004 -32.9151 -32.9151 -32.7074 -32.7074
   -14.0497 -14.0473 -13.8572 -13.8505 -13.7327 -13.7271 -13.5661 -13.5553
    -9.9515  -9.9240  -9.8610  -9.8163  -9.7832  -9.6797  -9.6235  -9.5699
    -9.5332  -9.5052  -9.4613  -9.3685  -9.2557  -9.2304  -9.1967  -9.1622
     5.1782   5.2073   5.3989   5.4476   6.1799   6.2459   6.4054   6.5357
     9.7087   9.7726   9.9321   9.9840  10.3134  10.3270  10.5628  10.5766
    11.3583  11.4249  11.6645  11.7173  11.7895  11.8392  12.0706  12.1409
    12.2516  12.3116

          k = 0.2500 0.7217 0.3132 (  5250 PWs)   bands (ev):

   -33.2329 -33.2329 -32.9987 -32.9987 -32.9169 -32.9169 -32.7083 -32.7083
   -14.0438 -14.0399 -13.8449 -13.8385 -13.7489 -13.7405 -13.5782 -13.5642
    -9.9342  -9.9291  -9.8617  -9.8189  -9.7539  -9.6905  -9.6378  -9.5980
    -9.5124  -9.4839  -9.4387  -9.3685  -9.2618  -9.2465  -9.2086  -9.1583
     5.2321   5.2676   5.4941   5.5161   6.0951   6.1790   6.4932   6.6204
     9.7539   9.7795  10.0062  10.0356  10.2601  10.3182  10.5597  10.5960
    11.0747  11.1260  11.3581  11.4410  12.0012  12.0685  12.0899  12.1423
    12.2964  12.3584

          k = 0.2500 0.7217-0.6263 (  5252 PWs)   bands (ev):

   -33.2320 -33.2320 -32.9969 -32.9969 -32.9188 -32.9187 -32.7092 -32.7092
   -14.0370 -14.0304 -13.8263 -13.8229 -13.7688 -13.7597 -13.5917 -13.5741
    -9.9333  -9.8963  -9.8337  -9.8279  -9.7483  -9.7174  -9.6670  -9.6385
    -9.4621  -9.4497  -9.3887  -9.3776  -9.2955  -9.2613  -9.2238  -9.1661
     5.3962   5.4322   5.5213   5.5515   6.0857   6.1446   6.4924   6.5855
     9.6645   9.7005   9.9828  10.0079  10.5539  10.5859  10.6957  10.7176
    10.7799  10.7947  11.0614  11.1150  11.7188  11.7783  11.8155  11.8880
    12.9239  12.9471

          k = 0.2500-1.0104 0.0000 (  5254 PWs)   bands (ev):

   -33.2206 -33.2206 -32.9873 -32.9873 -32.9054 -32.9054 -32.6974 -32.6974
   -14.0679 -14.0677 -13.8767 -13.8757 -13.7819 -13.7809 -13.6180 -13.6178
    -9.9490  -9.9397  -9.8784  -9.8611  -9.7817  -9.7433  -9.6950  -9.6759
    -9.6316  -9.5946  -9.5648  -9.4645  -9.3225  -9.2895  -9.2483  -9.2469
     5.5680   5.5951   5.6783   5.7074   6.2848   6.3476   6.4760   6.5374
     9.6844   9.7392   9.8068   9.8330   9.9393   9.9421  10.0629  10.0996
    11.3153  11.3435  11.4924  11.5085  11.9194  11.9456  12.1460  12.1633
    12.6709  12.7129

          k = 0.2500-1.0104 0.3132 (  5260 PWs)   bands (ev):

   -33.2204 -33.2204 -32.9861 -32.9861 -32.9066 -32.9066 -32.6976 -32.6976
   -14.0698 -14.0671 -13.8735 -13.8666 -13.7963 -13.7887 -13.6241 -13.6198
    -9.9874  -9.9740  -9.8979  -9.8777  -9.8004  -9.7782  -9.7003  -9.6611
    -9.5962  -9.5515  -9.5160  -9.3893  -9.3491  -9.2779  -9.2635  -9.2135
     5.4519   5.4660   5.5239   5.5366   6.5508   6.5867   6.6804   6.7243
     9.4640   9.4993   9.5666   9.5937  10.3396  10.3675  10.4309  10.4536
    11.0148  11.0491  11.1590  11.1965  11.9821  12.0209  12.1460  12.1764
    12.6969  12.7038

          k = 0.2500-1.0104-0.6263 (  5260 PWs)   bands (ev):

   -33.2201 -33.2201 -32.9848 -32.9848 -32.9079 -32.9079 -32.6978 -32.6978
   -14.0689 -14.0689 -13.8613 -13.8606 -13.8067 -13.8059 -13.6265 -13.6262
   -10.0109 -10.0049  -9.9028  -9.8994  -9.8141  -9.8107  -9.7048  -9.6698
    -9.5328  -9.5307  -9.4550  -9.3905  -9.3168  -9.2862  -9.2299  -9.2223
     5.4138   5.4422   5.5198   5.5623   6.5222   6.5619   6.7769   6.8259
     9.3014   9.3237   9.4565   9.5073  10.5774  10.5933  10.6083  10.6205
    11.1183  11.1452  11.1974  11.2318  11.9210  11.9362  11.9669  11.9909
    12.9706  12.9986

          k = 0.2500-0.4330 0.0000 (  5251 PWs)   bands (ev):

   -33.2352 -33.2351 -32.9991 -32.9990 -32.9158 -32.9158 -32.7066 -32.7066
   -14.0534 -14.0509 -13.8552 -13.8492 -13.7596 -13.7508 -13.5357 -13.5263
    -9.9533  -9.9264  -9.9050  -9.8550  -9.7683  -9.6694  -9.6117  -9.5461
    -9.5180  -9.5005  -9.4635  -9.4312  -9.2853  -9.2160  -9.1533  -9.1180
     4.5602   4.5859   5.7623   5.8124   6.3790   6.4303   6.5532   6.6582
     9.5346   9.6057  10.0998  10.1268  10.1771  10.3567  11.0758  11.1728
    11.3142  11.3344  11.6792  11.7223  11.9246  11.9453  12.0189  12.0533
    12.7588  12.8456

          k = 0.2500-0.4330 0.3132 (  5259 PWs)   bands (ev):

   -33.2342 -33.2341 -32.9974 -32.9974 -32.9177 -32.9177 -32.7073 -32.7073
   -14.0499 -14.0449 -13.8419 -13.8349 -13.7655 -13.7597 -13.5548 -13.5408
    -9.9846  -9.9167  -9.8731  -9.8505  -9.7819  -9.6628  -9.5969  -9.5554
[...]
    12.6354  12.6431

          k = 0.2500 0.1443 0.3132 (  5261 PWs)   bands (ev):

   -33.1623 -33.1623 -33.1291 -33.1291 -32.9106 -32.9106 -32.8763 -32.8763
   -13.9480 -13.9436 -13.8761 -13.8710 -13.7338 -13.7314 -13.5898 -13.5881
    -9.8617  -9.8526  -9.8098  -9.7947  -9.7284  -9.7045  -9.5256  -9.5072
    -9.3960  -9.3791  -9.3012  -9.2789  -9.2763  -9.2732  -9.1861  -9.1777
     4.1090   4.1091   5.5205   5.5859   6.1077   6.1565   6.4006   6.4705
     9.2603   9.2624   9.2955   9.3376  10.4499  10.4893  11.6191  11.6286
    11.7245  11.8330  11.9717  12.0020  12.0797  12.1757  12.4863  12.4892
    12.5438  12.5487

          k = 0.2500 0.1443-0.6263 (  5254 PWs)   bands (ev):

   -33.1594 -33.1594 -33.1284 -33.1284 -32.9136 -32.9136 -32.8772 -32.8772
   -13.9420 -13.9390 -13.8413 -13.8384 -13.7437 -13.7401 -13.6231 -13.6192
    -9.8626  -9.8513  -9.7599  -9.7579  -9.6792  -9.6707  -9.4780  -9.4728
    -9.4361  -9.4351  -9.3259  -9.3233  -9.3055  -9.3052  -9.2056  -9.2041
     4.5472   4.5590   5.3274   5.3546   5.9289   5.9673   6.4930   6.4954
     9.1363   9.1721   9.5345   9.5526  10.7348  10.7448  11.2352  11.2392
    11.2579  11.2653  12.0013  12.0181  12.0274  12.0277  12.1559  12.1776
    12.3747  12.3811

          k = 0.2500 0.7217 0.0000 (  5270 PWs)   bands (ev):

   -33.1372 -33.1372 -33.1333 -33.1333 -32.8865 -32.8865 -32.8752 -32.8752
   -13.9502 -13.9475 -13.9402 -13.9377 -13.7062 -13.6969 -13.6964 -13.6872
    -9.8682  -9.8649  -9.8284  -9.8272  -9.6362  -9.6321  -9.5951  -9.5895
    -9.5629  -9.5603  -9.5460  -9.5393  -9.2733  -9.2676  -9.2668  -9.2640
     5.2100   5.2237   5.2650   5.2789   6.1932   6.2054   6.2999   6.3127
     9.6738   9.6857   9.7416   9.7531  10.4390  10.4444  10.4767  10.4814
    11.7203  11.7292  11.7814  11.7932  12.0198  12.0327  12.0789  12.0871
    12.4948  12.4991

          k = 0.2500 0.7217 0.3132 (  5250 PWs)   bands (ev):

   -33.1361 -33.1361 -33.1321 -33.1321 -32.8877 -32.8877 -32.8764 -32.8764
   -13.9398 -13.9373 -13.9322 -13.9298 -13.7192 -13.7098 -13.7079 -13.6985
    -9.8624  -9.8549  -9.8169  -9.8161  -9.6803  -9.6764  -9.6211  -9.6178
    -9.5313  -9.5265  -9.4865  -9.4808  -9.2941  -9.2910  -9.2755  -9.2732
     5.2576   5.2959   5.5106   5.5482   5.9764   6.0582   6.2662   6.3696
     9.5690   9.5960   9.7622   9.7969  10.3760  10.4318  10.6228  10.6939
    11.4340  11.4538  11.4828  11.4915  12.0751  12.0832  12.0937  12.1376
    12.4576  12.4809

          k = 0.2500 0.7217-0.6263 (  5252 PWs)   bands (ev):

   -33.1350 -33.1350 -33.1310 -33.1310 -32.8888 -32.8888 -32.8775 -32.8775
   -13.9281 -13.9261 -13.9229 -13.9207 -13.7338 -13.7245 -13.7198 -13.7105
    -9.8500  -9.8463  -9.7765  -9.7751  -9.7404  -9.7370  -9.6708  -9.6684
    -9.4684  -9.4678  -9.3975  -9.3936  -9.3480  -9.3464  -9.3024  -9.2996
     5.5468   5.5531   5.5741   5.5812   6.0400   6.0469   6.1189   6.1241
     9.5471   9.5489   9.5738   9.5761  10.8503  10.8567  10.9125  10.9207
    11.1472  11.1536  11.2107  11.2169  11.5971  11.6043  11.6219  11.6302
    13.1517  13.1608

          k = 0.2500-1.0104 0.0000 (  5254 PWs)   bands (ev):

   -33.1248 -33.1248 -33.1209 -33.1209 -32.8758 -32.8758 -32.8644 -32.8644
   -13.9654 -13.9653 -13.9595 -13.9595 -13.7626 -13.7625 -13.7459 -13.7458
    -9.8560  -9.8554  -9.8312  -9.8302  -9.7320  -9.7314  -9.6901  -9.6882
    -9.6520  -9.6518  -9.6340  -9.6318  -9.3342  -9.3288  -9.3273  -9.3218
     5.5590   5.5608   5.6139   5.6148   6.2852   6.2883   6.3610   6.3631
     9.6996   9.7012   9.7491   9.7508  10.0445  10.0467  10.1163  10.1178
    11.6233  11.6264  11.6727  11.6759  12.0286  12.0316  12.0847  12.0879
    12.6537  12.6592

          k = 0.2500-1.0104 0.3132 (  5260 PWs)   bands (ev):

   -33.1245 -33.1245 -33.1205 -33.1205 -32.8762 -32.8762 -32.8648 -32.8648
   -13.9644 -13.9641 -13.9592 -13.9590 -13.7689 -13.7687 -13.7504 -13.7501
    -9.9033  -9.9021  -9.8435  -9.8421  -9.7966  -9.7961  -9.7218  -9.7209
    -9.5797  -9.5758  -9.5291  -9.5273  -9.3395  -9.3390  -9.3174  -9.3125
     5.4333   5.4347   5.4826   5.4831   6.5308   6.5323   6.6411   6.6424
     9.4869   9.4878   9.5110   9.5123  10.3549  10.3566  10.4529  10.4551
    11.2268  11.2285  11.2895  11.2912  11.8695  11.8714  11.9668  11.9703
    12.7875  12.8014

          k = 0.2500-1.0104-0.6263 (  5260 PWs)   bands (ev):

   -33.1241 -33.1241 -33.1201 -33.1201 -32.8766 -32.8766 -32.8652 -32.8652
   -13.9628 -13.9627 -13.9583 -13.9582 -13.7756 -13.7755 -13.7549 -13.7548
    -9.9334  -9.9332  -9.8470  -9.8457  -9.8346  -9.8333  -9.7500  -9.7493
    -9.5244  -9.5239  -9.4310  -9.4304  -9.3726  -9.3712  -9.3099  -9.3098
     5.4684   5.4697   5.4983   5.4999   6.6399   6.6422   6.7227   6.7249
     9.1608   9.1628   9.1807   9.1826  10.8081  10.8107  10.8124  10.8151
    10.9348  10.9355  11.0043  11.0047  11.8056  11.8071  11.8127  11.8147
    13.3015  13.3034

          k = 0.2500-0.4330 0.0000 (  5251 PWs)   bands (ev):

   -33.1529 -33.1529 -33.1176 -33.1176 -32.8969 -32.8969 -32.8647 -32.8647
   -13.9704 -13.9670 -13.9232 -13.9138 -13.7861 -13.7624 -13.6191 -13.6155
    -9.8807  -9.8521  -9.8164  -9.8017  -9.7413  -9.7182  -9.7138  -9.6160
    -9.4965  -9.4787  -9.4559  -9.4269  -9.3727  -9.3587  -9.1995  -9.1906
     4.3894   4.4138   5.8888   5.9429   6.1659   6.3281   6.5055   6.6369
     9.3257   9.4229  10.1140  10.1534  10.1928  10.3768  11.0603  11.0694
    11.2702  11.3431  11.8198  11.8771  11.9950  12.0334  12.4176  12.4540
    12.9231  12.9682

          k = 0.2500-0.4330 0.3132 (  5259 PWs)   bands (ev):

   -33.1507 -33.1507 -33.1175 -33.1175 -32.8992 -32.8991 -32.8648 -32.8648
   -13.9717 -13.9703 -13.9019 -13.8948 -13.7907 -13.7634 -13.6403 -13.6354
    -9.9194  -9.8420  -9.8245  -9.7991  -9.7854  -9.7079  -9.6440  -9.5358
    -9.5145  -9.4772  -9.4485  -9.4091  -9.3766  -9.3694  -9.2334  -9.2208
     4.6506   4.6671   5.8734   5.9283   6.2843   6.3004   6.3835   6.4553
     9.4225   9.4861   9.9145   9.9633  10.4338  10.5369  10.8350  10.9385
    11.0101  11.0304  11.6041  11.6929  11.7303  11.7429  12.3129  12.3592
    12.7267  12.7420

          k = 0.2500-0.4330-0.6263 (  5266 PWs)   bands (ev):

   -33.1486 -33.1486 -33.1174 -33.1174 -32.9014 -32.9014 -32.8649 -32.8649
   -13.9750 -13.9715 -13.8765 -13.8722 -13.7954 -13.7646 -13.6659 -13.6585
    -9.9791  -9.8800  -9.7914  -9.7411  -9.7162  -9.7059  -9.6202  -9.5905
    -9.5482  -9.4641  -9.4441  -9.3857  -9.3388  -9.3342  -9.2879  -9.2680
     5.0457   5.0637   5.8794   5.9106   5.9235   5.9748   6.4386   6.5773
     9.5664   9.5857   9.7336   9.7558  10.3889  10.4160  10.8563  10.8879
    10.9710  10.9800  11.4223  11.5945  11.6505  11.6847  11.8225  11.8623
    12.8226  12.8409

          k =-0.5000-0.2887 0.0000 (  5254 PWs)   bands (ev):

   -33.1496 -33.1496 -33.1455 -33.1455 -32.8972 -32.8972 -32.8860 -32.8860
   -13.9309 -13.9309 -13.9203 -13.9203 -13.6461 -13.6461 -13.6363 -13.6363
    -9.8805  -9.8805  -9.8475  -9.8475  -9.5253  -9.5253  -9.5165  -9.5165
    -9.4381  -9.4381  -9.4251  -9.4251  -9.2107  -9.2107  -9.2015  -9.2015
     4.6237   4.6237   4.6494   4.6494   6.4178   6.4178   6.5390   6.5390
     9.4237   9.4237   9.4961   9.4961  10.8388  10.8388  10.8513  10.8513
    11.9133  11.9133  11.9601  11.9601  12.3826  12.3826  12.4034  12.4034
    12.7177  12.7177

          k =-0.5000-0.2887 0.3132 (  5256 PWs)   bands (ev):

   -33.1478 -33.1478 -33.1437 -33.1437 -32.8991 -32.8991 -32.8878 -32.8878
   -13.9136 -13.9127 -13.9047 -13.9046 -13.6646 -13.6641 -13.6544 -13.6541
    -9.8395  -9.8288  -9.8085  -9.8078  -9.5628  -9.5564  -9.5321  -9.5246
    -9.4483  -9.4388  -9.4168  -9.4088  -9.2400  -9.2355  -9.2319  -9.2274
     4.7788   4.7823   4.9468   4.9579   6.1191   6.2067   6.3675   6.4556
     9.4578   9.4885   9.5115   9.5188  10.7521  10.7960  10.8486  10.8805
    11.5554  11.5875  11.7304  11.7402  12.1860  12.2151  12.3502  12.3511
    12.6945  12.6948

          k =-0.5000-0.2887-0.6263 (  5256 PWs)   bands (ev):

   -33.1460 -33.1460 -33.1419 -33.1419 -32.9011 -32.9011 -32.8898 -32.8898
   -13.8923 -13.8923 -13.8863 -13.8863 -13.6860 -13.6860 -13.6746 -13.6746
    -9.7603  -9.7603  -9.7452  -9.7452  -9.6195  -9.6195  -9.6151  -9.6151
    -9.3800  -9.3800  -9.3739  -9.3739  -9.2888  -9.2888  -9.2801  -9.2801
     5.1852   5.1852   5.2118   5.2118   5.9655   5.9655   6.0001   6.0001
     9.5243   9.5243   9.5458   9.5458  10.8484  10.8484  10.8550  10.8550
    11.6062  11.6062  11.6562  11.6562  11.7746  11.7746  11.7927  11.7927
    13.0076  13.0176

          k =-0.5000 0.2887 0.0000 (  5253 PWs)   bands (ev):

   -33.1478 -33.1478 -33.1227 -33.1227 -32.8929 -32.8929 -32.8688 -32.8688
   -13.9649 -13.9582 -13.9307 -13.9211 -13.7614 -13.7422 -13.6407 -13.6405
    -9.8808  -9.8481  -9.8316  -9.7927  -9.7379  -9.6883  -9.6495  -9.6259
    -9.5247  -9.5193  -9.4362  -9.4278  -9.3795  -9.3711  -9.2037  -9.2033
     4.6246   4.6454   5.8470   5.9359   6.0015   6.1278   6.4150   6.5355
     9.4122   9.4802   9.9763  10.0671  10.2478  10.3412  10.8314  10.8433
    11.3561  11.4052  11.9285  11.9712  12.0536  12.0893  12.4256  12.4341
    12.4429  12.5055

          k =-0.5000 0.2887 0.3132 (  5250 PWs)   bands (ev):

   -33.1460 -33.1460 -33.1223 -33.1223 -32.8948 -32.8948 -32.8692 -32.8692
   -13.9627 -13.9583 -13.9131 -13.9054 -13.7686 -13.7464 -13.6594 -13.6577
    -9.8971  -9.8382  -9.8170  -9.8076  -9.7789  -9.6839  -9.6116  -9.5609
    -9.5327  -9.5237  -9.4433  -9.4115  -9.3884  -9.3429  -9.2366  -9.2310
     4.7824   4.7853   5.8395   5.8859   6.1246   6.2569   6.3593   6.4474
     9.4799   9.5045   9.9253   9.9419  10.3143  10.4050  10.7558  10.8011
    11.2103  11.2646  11.6750  11.7466  11.7566  11.7656  12.1952  12.2255
    12.5208  12.5478

          k =-0.5000 0.2887-0.6263 (  5272 PWs)   bands (ev):

   -33.1441 -33.1441 -33.1219 -33.1219 -32.8967 -32.8967 -32.8696 -32.8696
   -13.9610 -13.9572 -13.8912 -13.8870 -13.7763 -13.7506 -13.6824 -13.6772
    -9.9403  -9.8414  -9.7893  -9.7593  -9.7441  -9.7087  -9.6176  -9.6134
    -9.5690  -9.4335  -9.4222  -9.3811  -9.3755  -9.3240  -9.2881  -9.2843
     5.1858   5.2122   5.8370   5.8582   5.9660   5.9998   6.2474   6.3813
     9.5252   9.5312   9.7832   9.8268  10.3489  10.3595  10.8517  10.8535
    11.1657  11.2489  11.3920  11.4789  11.6138  11.6673  11.7941  11.8009
    13.0213  13.0272

          k =-0.5000-1.4434 0.0000 (  5252 PWs)   bands (ev):

   -33.1249 -33.1249 -33.1210 -33.1210 -32.8758 -32.8758 -32.8644 -32.8644
   -13.9657 -13.9657 -13.9582 -13.9582 -13.7618 -13.7618 -13.7403 -13.7403
    -9.8335  -9.8335  -9.7938  -9.7938  -9.7388  -9.7388  -9.6878  -9.6878
    -9.6495  -9.6495  -9.6265  -9.6265  -9.3788  -9.3788  -9.3667  -9.3667
     5.8469   5.8469   5.9365   5.9365   5.9957   5.9957   6.1214   6.1214
     9.9686   9.9686  10.0608  10.0608  10.2465  10.2465  10.3376  10.3376
    11.3547  11.3547  11.4024  11.4024  12.0708  12.0708  12.1096  12.1096
    12.4236  12.4236

          k =-0.5000-1.4434 0.3132 (  5244 PWs)   bands (ev):

   -33.1245 -33.1245 -33.1205 -33.1205 -32.8762 -32.8762 -32.8648 -32.8648
   -13.9634 -13.9633 -13.9578 -13.9578 -13.7691 -13.7691 -13.7448 -13.7446
    -9.8977  -9.8959  -9.8182  -9.8147  -9.7797  -9.7781  -9.6825  -9.6785
    -9.6167  -9.6135  -9.5364  -9.5358  -9.3873  -9.3859  -9.3444  -9.3391
     5.8370   5.8413   5.8827   5.8888   6.1197   6.1205   6.2537   6.2543
     9.9243   9.9250   9.9425   9.9432  10.3190  10.3201  10.4079  10.4082
    11.2031  11.2045  11.2551  11.2563  11.6927  11.6935  11.7655  11.7671
    12.5095  12.5118

          k =-0.5000-1.4434-0.6263 (  5288 PWs)   bands (ev):

   -33.1241 -33.1241 -33.1201 -33.1201 -32.8766 -32.8766 -32.8652 -32.8652
   -13.9616 -13.9616 -13.9563 -13.9563 -13.7768 -13.7768 -13.7491 -13.7491
    -9.9402  -9.9402  -9.8412  -9.8412  -9.7878  -9.7878  -9.7026  -9.7026
    -9.5745  -9.5745  -9.4329  -9.4329  -9.4252  -9.4252  -9.3246  -9.3246
     5.8380   5.8380   5.8638   5.8638   6.2411   6.2411   6.3776   6.3776
     9.7820   9.7820   9.8262   9.8262  10.3645  10.3645  10.3835  10.3835
    11.1773  11.1773  11.2626  11.2626  11.3764  11.3764  11.4651  11.4651
    13.0219  13.0219

          k = 0.0000-0.5773 0.3132 (  5250 PWs)   bands (ev):

   -33.1460 -33.1460 -33.1223 -33.1223 -32.8948 -32.8948 -32.8692 -32.8692
   -13.9627 -13.9583 -13.9131 -13.9053 -13.7686 -13.7463 -13.6595 -13.6578
    -9.8972  -9.8383  -9.8170  -9.8076  -9.7788  -9.6834  -9.6120  -9.5608
    -9.5330  -9.5238  -9.4431  -9.4116  -9.3882  -9.3428  -9.2366  -9.2310
     4.7821   4.7852   5.8393   5.8859   6.1242   6.2565   6.3603   6.4487
     9.4807   9.5053   9.9246   9.9411  10.3148  10.4058  10.7556  10.8009
    11.2106  11.2649  11.6757  11.7454  11.7555  11.7639  12.1942  12.2244
    12.5196  12.5468

          k =-0.2500-0.1443 0.3132 (  5261 PWs)   bands (ev):

   -33.1623 -33.1623 -33.1291 -33.1291 -32.9106 -32.9106 -32.8763 -32.8763
   -13.9498 -13.9435 -13.8758 -13.8709 -13.7320 -13.7318 -13.5900 -13.5882
    -9.8847  -9.8482  -9.8076  -9.7944  -9.7256  -9.6925  -9.5154  -9.5068
    -9.3959  -9.3806  -9.3038  -9.2837  -9.2788  -9.2761  -9.1821  -9.1750
     4.1262   4.1295   5.1960   5.2121   6.3635   6.4412   6.5276   6.6071
     9.2901   9.3491   9.4465   9.4896  10.3356  10.4385  11.4467  11.4625
    11.6104  11.6218  11.9403  11.9680  12.1992  12.2207  12.3693  12.3824
    12.6199  12.6278

          k =-0.2500-0.7217 0.3132 (  5250 PWs)   bands (ev):

   -33.1361 -33.1361 -33.1322 -33.1321 -32.8877 -32.8877 -32.8764 -32.8764
   -13.9398 -13.9373 -13.9321 -13.9298 -13.7192 -13.7097 -13.7079 -13.6985
    -9.8624  -9.8550  -9.8168  -9.8162  -9.6803  -9.6764  -9.6208  -9.6181
    -9.5315  -9.5263  -9.4865  -9.4808  -9.2941  -9.2910  -9.2755  -9.2732
     5.2574   5.2956   5.5100   5.5479   5.9763   6.0577   6.2674   6.3711
     9.5682   9.5951   9.7626   9.7973  10.3759  10.4319  10.6221  10.6931
    11.4365  11.4523  11.4844  11.4911  12.0733  12.0854  12.0960  12.1356
    12.4554  12.4793

          k =-0.2500 1.0104 0.3132 (  5260 PWs)   bands (ev):

   -33.1245 -33.1245 -33.1205 -33.1205 -32.8762 -32.8762 -32.8648 -32.8648
   -13.9636 -13.9633 -13.9594 -13.9592 -13.7692 -13.7690 -13.7506 -13.7503
    -9.8963  -9.8953  -9.8408  -9.8399  -9.8005  -9.8002  -9.7253  -9.7246
    -9.5800  -9.5772  -9.5338  -9.5303  -9.3380  -9.3372  -9.3163  -9.3130
     5.5719   5.5741   5.6395   5.6419   6.3557   6.3596   6.4582   6.4624
     9.3237   9.3247   9.3439   9.3449  10.4275  10.4295  10.5036  10.5063
    11.5075  11.5113  11.5470  11.5526  11.8046  11.8062  11.8788  11.8811
    12.7197  12.7211

          k =-0.2500 0.4330 0.3132 (  5259 PWs)   bands (ev):

   -33.1507 -33.1507 -33.1175 -33.1175 -32.8992 -32.8991 -32.8648 -32.8648
   -13.9717 -13.9703 -13.9019 -13.8948 -13.7907 -13.7634 -13.6403 -13.6354
    -9.9194  -9.8420  -9.8245  -9.7991  -9.7853  -9.7080  -9.6439  -9.5358
    -9.5145  -9.4772  -9.4485  -9.4090  -9.3766  -9.3694  -9.2334  -9.2208
     4.6509   4.6674   5.8732   5.9280   6.2838   6.3006   6.3830   6.4556
     9.4220   9.4857   9.9141   9.9631  10.4347  10.5375  10.8355  10.9389
    11.0106  11.0309  11.6036  11.6927  11.7298  11.7429  12.3130  12.3595
    12.7266  12.7416

          k = 0.5000-0.2887 0.3132 (  5250 PWs)   bands (ev):

   -33.1460 -33.1460 -33.1223 -33.1223 -32.8948 -32.8948 -32.8692 -32.8692
   -13.9626 -13.9582 -13.9123 -13.9053 -13.7687 -13.7464 -13.6602 -13.6576
    -9.8961  -9.8295  -9.8155  -9.8082  -9.7801  -9.6844  -9.6123  -9.5595
    -9.5353  -9.5296  -9.4493  -9.4129  -9.3865  -9.3423  -9.2353  -9.2304
     4.9414   4.9524   5.8349   5.8803   6.1194   6.1343   6.2114   6.2632
     9.4529   9.4996   9.9295   9.9482  10.3152  10.4005  10.8353  10.8655
    11.2030  11.2556  11.5812  11.6152  11.6809  11.7531  12.3588  12.3631
    12.5233  12.5506

     the Fermi energy is    11.0945 ev

!    total energy              =   -2243.37520585 Ry
     Harris-Foulkes estimate   =   -2243.37520943 Ry
     estimated scf accuracy    <          4.6E-09 Ry

     total all-electron energy =    -90247.718600 Ry

     The total energy is the sum of the following terms:

     one-electron contribution =     -39.91054838 Ry
     hartree contribution      =      40.90415805 Ry
     xc contribution           =    -254.44991031 Ry
     ewald contribution        =    -241.85841825 Ry
     one-center paw contrib.   =   -1748.05827154 Ry
     smearing contrib. (-TS)   =      -0.00221542 Ry

     convergence has been achieved in  11 iterations

     Forces acting on atoms (cartesian axes, Ry/au):

     atom    1 type  1   force =    -0.00048301   -0.00038044    0.00036970
     atom    2 type  1   force =     0.00082239    0.00064798    0.00040387
     atom    3 type  1   force =     0.00018659   -0.00051297   -0.00047637
     atom    4 type  1   force =     0.00024143    0.00039563   -0.00025940
     atom    5 type  2   force =    -0.00078623    0.00015447   -0.00036163
     atom    6 type  2   force =    -0.00012073   -0.00049421    0.00008303
     atom    7 type  2   force =     0.00053443    0.00037654    0.00022181
     atom    8 type  2   force =    -0.00039487   -0.00018699    0.00001899

     Total force =     0.002071     Total SCF correction =     0.000154


     Computing stress (Cartesian axis) and pressure

     Message from routine stres:
     noncollinear stress + GGA not implemented

     Writing output data file 2308.save
 
     init_run     :      5.74s CPU      6.22s WALL (       2 calls)
     electrons    :   1294.72s CPU   1327.52s WALL (      27 calls)
     update_pot   :      7.91s CPU     10.87s WALL (      25 calls)
     forces       :     45.63s CPU     45.68s WALL (      27 calls)

     Called by init_run:
     wfcinit      :      4.79s CPU      5.01s WALL (       2 calls)
     potinit      :      0.36s CPU      0.41s WALL (       2 calls)

     Called by electrons:
     c_bands      :   1095.33s CPU   1116.59s WALL (     230 calls)
     sum_band     :    146.22s CPU    149.90s WALL (     230 calls)
     v_of_rho     :      0.86s CPU      0.88s WALL (     251 calls)
     newd         :     21.89s CPU     21.95s WALL (     251 calls)
     PAW_pot      :     38.89s CPU     39.25s WALL (     276 calls)
     mix_rho      :      0.74s CPU      0.77s WALL (     230 calls)

     Called by c_bands:
     init_us_2    :      3.94s CPU      4.02s WALL (   18504 calls)
     cegterg      :    998.93s CPU   1019.62s WALL (    8280 calls)

     Called by sum_band:
     sum_band:bec :     39.90s CPU     39.93s WALL (    9180 calls)
     addusdens    :      6.47s CPU      6.50s WALL (     230 calls)

     Called by *egterg:
     h_psi        :    542.39s CPU    562.21s WALL (   39374 calls)
     s_psi        :     64.47s CPU     64.67s WALL (   39374 calls)
     g_psi        :      3.37s CPU      3.39s WALL (   31022 calls)
     cdiaghg      :    237.07s CPU    237.43s WALL (   38186 calls)

     Called by h_psi:
     h_psi:pot    :    537.67s CPU    557.44s WALL (   39374 calls)
     h_psi:calbec :     39.00s CPU     39.81s WALL (   39374 calls)
     vloc_psi     :    434.44s CPU    453.16s WALL (   39374 calls)
     add_vuspsi   :     63.99s CPU     64.26s WALL (   39374 calls)

     General routines
     calbec       :     59.40s CPU     60.49s WALL (   52442 calls)
     fft          :      0.99s CPU      1.16s WALL (    4944 calls)
     fftw         :    439.60s CPU    457.81s WALL ( 6272604 calls)
     davcio       :      0.00s CPU      0.03s WALL (      72 calls)
 
     Parallel routines
     fft_scatter  :    206.08s CPU    216.91s WALL ( 6277548 calls)
 
     PWSCF        : 22m48.14s CPU    24m47.56s WALL

 
   This run was terminated on:  17:29: 9  13Oct2022            

=------------------------------------------------------------------------------=
   JOB DONE.
=------------------------------------------------------------------------------=
Removing 2308 from /home/shaharpit/tmp
