
     Program PWSCF v.6.1 (svn rev. 13369) starts on 13Oct2022 at 17: 8:11 

     This program is part of the open-source Quantum ESPRESSO suite
     for quantum simulation of materials; please cite
         "P. Giannozzi et al., J. Phys.:Condens. Matter 21 395502 (2009);
          URL http://www.quantum-espresso.org", 
     in publications or presentations arising from this work. More details at
     http://www.quantum-espresso.org/quote

     Parallel version (MPI), running on    16 processors
     R & G space division:  proc/nbgrp/npool/nimage =      16
     Reading input from ./hcp_75.in

     Current dimensions of program PWSCF are:
     Max number of different atomic species (ntypx) = 10
     Max number of k-points (npk) =  40000
     Max angular momentum in pseudopotentials (lmaxx) =  3
               file Gd.rel-pbe-spdn-kjpaw_psl.1.0.0.UPF: wavefunction(s)  5P 5P renormalized
               file H.pbe-kjpaw_psl.0.1.UPF: wavefunction(s)  1S renormalized

     Subspace diagonalization in iterative solution of the eigenvalue problem:
     a serial algorithm will be used

 
     Parallelization info
     --------------------
     sticks:   dense  smooth     PW     G-vecs:    dense   smooth      PW
     Min          80      80     24                 2632     2632     442
     Max          81      81     25                 2637     2637     447
     Sum        1287    1287    397                42147    42147    7103
 


     bravais-lattice index     =            0
     lattice parameter (alat)  =      13.6588  a.u.
     unit-cell volume          =     880.8636 (a.u.)^3
     number of atoms/cell      =           10
     number of atomic types    =            2
     number of electrons       =        50.00
     number of Kohn-Sham states=           60
     kinetic-energy cutoff     =      50.0000  Ry
     charge density cutoff     =     200.0000  Ry
     convergence threshold     =      1.0E-06
     mixing beta               =       0.7000
     number of iterations used =            8  plain     mixing
     Exchange-correlation      =  SLA  PW   PBX  PBC ( 1  4  3  4 0 0)
     nstep                     =          150

     Non magnetic calculation with spin-orbit


     celldm(1)=  13.658752  celldm(2)=   0.000000  celldm(3)=   0.000000
     celldm(4)=   0.000000  celldm(5)=   0.000000  celldm(6)=   0.000000

     crystal axes: (cart. coord. in units of alat)
               a(1) = (   1.000000   0.000000   0.000000 )  
               a(2) = (  -0.250003   0.433017   0.000000 )  
               a(3) = (   0.000000   0.000000   0.798309 )  

     reciprocal axes: (cart. coord. in units 2 pi/alat)
               b(1) = (  1.000000  0.577353  0.000000 )  
               b(2) = (  0.000000  2.309381  0.000000 )  
               b(3) = (  0.000000  0.000000  1.252647 )  


     PseudoPot. # 1 for Gd read from file:
     /home/shaharpit/MeamGdH/dft/qe_potentials/Gd.rel-pbe-spdn-kjpaw_psl.1.0.0.UPF
     MD5 check sum: cf50ec46d1536b4a0251694df1946a53
     Pseudo is Projector augmented-wave + core cor, Zval = 11.0
     Generated using "atomic" code by A. Dal Corso  v.6.2.2
     Shape of augmentation charge: PSQ
     Using radial grid of 1263 points, 10 beta functions with: 
                l(1) =   0
                l(2) =   0
                l(3) =   1
                l(4) =   1
                l(5) =   1
                l(6) =   1
                l(7) =   2
                l(8) =   2
                l(9) =   2
               l(10) =   2
     Q(r) pseudized with 0 coefficients 


     PseudoPot. # 2 for  H read from file:
     /home/shaharpit/MeamGdH/dft/qe_potentials/H.pbe-kjpaw_psl.0.1.UPF
     MD5 check sum: fbb168fef676c0aaadbafd73f5b1efa8
     Pseudo is Projector augmented-wave, Zval =  1.0
     Generated using "atomic" code by A. Dal Corso  v.5.0.2 svn rev. 9415
     Shape of augmentation charge: PSQ
     Using radial grid of  929 points,  2 beta functions with: 
                l(1) =   0
                l(2) =   0
     Q(r) pseudized with 0 coefficients 


     atomic species   valence    mass     pseudopotential
        Gd            11.00   157.25000     Gd( 1.00)
        H              1.00     1.00794      H( 1.00)

     No symmetry found



   Cartesian axes

     site n.     atom                  positions (alat units)
         1           Gd  tau(   1) = (   0.2499738   0.1443244   0.5987320  )
         2           Gd  tau(   2) = (   0.7499738   0.1443244   0.5987320  )
         3           Gd  tau(   3) = (   0.0000227   0.2886921   0.1995773  )
         4           Gd  tau(   4) = (   0.5000227   0.2886921   0.1995773  )
         5           H   tau(   5) = (   0.2603489   0.1351878   0.7734021  )
         6           H   tau(   6) = (   0.7141741   0.1153989   0.7679736  )
         7           H   tau(   7) = (   0.7240968   0.3952575   0.4070579  )
         8           H   tau(   8) = (   0.2676216   0.4208487   0.3987555  )
         9           H   tau(   9) = (  -0.0020534   0.4258284   0.2957736  )
        10           H   tau(  10) = (   0.7594248   0.0214343   0.2383752  )

     number of k points=    36  gaussian smearing, width (Ry)=  0.0100
                       cart. coord. in units 2pi/alat
        k(    1) = (   0.0000000   0.0000000   0.0000000), wk =   0.0156250
        k(    2) = (   0.0000000   0.0000000   0.3131618), wk =   0.0312500
        k(    3) = (   0.0000000   0.0000000  -0.6263236), wk =   0.0156250
        k(    4) = (   0.0000000   0.5773452   0.0000000), wk =   0.0312500
        k(    5) = (   0.0000000   0.5773452   0.3131618), wk =   0.0312500
        k(    6) = (   0.0000000   0.5773452  -0.6263236), wk =   0.0312500
        k(    7) = (   0.0000000  -1.1546904   0.0000000), wk =   0.0156250
        k(    8) = (   0.0000000  -1.1546904   0.3131618), wk =   0.0312500
        k(    9) = (   0.0000000  -1.1546904  -0.6263236), wk =   0.0156250
        k(   10) = (   0.2500000   0.1443383   0.0000000), wk =   0.0312500
        k(   11) = (   0.2500000   0.1443383   0.3131618), wk =   0.0312500
        k(   12) = (   0.2500000   0.1443383  -0.6263236), wk =   0.0312500
        k(   13) = (   0.2500000   0.7216835   0.0000000), wk =   0.0312500
        k(   14) = (   0.2500000   0.7216835   0.3131618), wk =   0.0312500
        k(   15) = (   0.2500000   0.7216835  -0.6263236), wk =   0.0312500
        k(   16) = (   0.2500000  -1.0103521   0.0000000), wk =   0.0312500
        k(   17) = (   0.2500000  -1.0103521   0.3131618), wk =   0.0312500
        k(   18) = (   0.2500000  -1.0103521  -0.6263236), wk =   0.0312500
        k(   19) = (   0.2500000  -0.4330069   0.0000000), wk =   0.0312500
        k(   20) = (   0.2500000  -0.4330069   0.3131618), wk =   0.0312500
        k(   21) = (   0.2500000  -0.4330069  -0.6263236), wk =   0.0312500
        k(   22) = (  -0.5000000  -0.2886766   0.0000000), wk =   0.0156250
        k(   23) = (  -0.5000000  -0.2886766   0.3131618), wk =   0.0312500
        k(   24) = (  -0.5000000  -0.2886766  -0.6263236), wk =   0.0156250
        k(   25) = (  -0.5000000   0.2886686   0.0000000), wk =   0.0312500
        k(   26) = (  -0.5000000   0.2886686   0.3131618), wk =   0.0312500
        k(   27) = (  -0.5000000   0.2886686  -0.6263236), wk =   0.0312500
        k(   28) = (  -0.5000000  -1.4433670   0.0000000), wk =   0.0156250
        k(   29) = (  -0.5000000  -1.4433670   0.3131618), wk =   0.0312500
        k(   30) = (  -0.5000000  -1.4433670  -0.6263236), wk =   0.0156250
        k(   31) = (   0.0000000  -0.5773452   0.3131618), wk =   0.0312500
        k(   32) = (  -0.2500000  -0.1443383   0.3131618), wk =   0.0312500
        k(   33) = (  -0.2500000  -0.7216835   0.3131618), wk =   0.0312500
        k(   34) = (  -0.2500000   1.0103521   0.3131618), wk =   0.0312500
        k(   35) = (  -0.2500000   0.4330069   0.3131618), wk =   0.0312500
        k(   36) = (   0.5000000  -0.2886686   0.3131618), wk =   0.0312500

     Dense  grid:    42147 G-vectors     FFT dimensions: (  64,  32,  50)

     Estimated max dynamical RAM per process >      34.81MB

     Estimated total allocated dynamical RAM >     556.91MB

     Initial potential from superposition of free atoms

     starting charge   49.92376, renormalised to   50.00000
     Starting wfc are  116 randomized atomic wfcs
     Checking if some PAW data can be deallocated... 

     total cpu time spent up to now is        3.7 secs

     per-process dynamical memory:    92.6 Mb

     Self-consistent Calculation

     iteration #  1     ecut=    50.00 Ry     beta=0.70
     Davidson diagonalization with overlap
     ethr =  1.00E-02,  avg # of iterations =  2.0

     total cpu time spent up to now is        8.6 secs

     total energy              =   -2243.82064048 Ry
     Harris-Foulkes estimate   =   -2244.25101115 Ry
     estimated scf accuracy    <       0.75910804 Ry

     iteration #  2     ecut=    50.00 Ry     beta=0.70
     Davidson diagonalization with overlap
     ethr =  1.52E-03,  avg # of iterations =  2.2

     total cpu time spent up to now is       13.3 secs

     total energy              =   -2243.92249220 Ry
     Harris-Foulkes estimate   =   -2244.00448885 Ry
     estimated scf accuracy    <       0.12601142 Ry

     iteration #  3     ecut=    50.00 Ry     beta=0.70
     Davidson diagonalization with overlap
     ethr =  2.52E-04,  avg # of iterations =  4.1

     total cpu time spent up to now is       19.5 secs

     total energy              =   -2243.91823206 Ry
     Harris-Foulkes estimate   =   -2244.03542870 Ry
     estimated scf accuracy    <       0.38495659 Ry

     iteration #  4     ecut=    50.00 Ry     beta=0.70
     Davidson diagonalization with overlap
     ethr =  2.52E-04,  avg # of iterations =  3.8

     total cpu time spent up to now is       25.2 secs

     total energy              =   -2243.97426249 Ry
     Harris-Foulkes estimate   =   -2243.97990183 Ry
     estimated scf accuracy    <       0.01487688 Ry

     iteration #  5     ecut=    50.00 Ry     beta=0.70
     Davidson diagonalization with overlap
     ethr =  2.98E-05,  avg # of iterations =  3.6

     total cpu time spent up to now is       30.7 secs

     total energy              =   -2243.97631389 Ry
     Harris-Foulkes estimate   =   -2243.97908717 Ry
     estimated scf accuracy    <       0.00788975 Ry

     iteration #  6     ecut=    50.00 Ry     beta=0.70
     Davidson diagonalization with overlap
     ethr =  1.58E-05,  avg # of iterations =  3.2

     total cpu time spent up to now is       35.8 secs

     total energy              =   -2243.97758264 Ry
     Harris-Foulkes estimate   =   -2243.97792182 Ry
     estimated scf accuracy    <       0.00085284 Ry

     iteration #  7     ecut=    50.00 Ry     beta=0.70
     Davidson diagonalization with overlap
     ethr =  1.71E-06,  avg # of iterations =  3.4

     total cpu time spent up to now is       41.0 secs

     total energy              =   -2243.97774690 Ry
     Harris-Foulkes estimate   =   -2243.97780487 Ry
     estimated scf accuracy    <       0.00014118 Ry

     iteration #  8     ecut=    50.00 Ry     beta=0.70
     Davidson diagonalization with overlap
     ethr =  2.82E-07,  avg # of iterations =  2.0

     total cpu time spent up to now is       45.5 secs

     total energy              =   -2243.97777809 Ry
     Harris-Foulkes estimate   =   -2243.97778330 Ry
     estimated scf accuracy    <       0.00001406 Ry

     iteration #  9     ecut=    50.00 Ry     beta=0.70
     Davidson diagonalization with overlap
     ethr =  2.81E-08,  avg # of iterations =  2.1

     total cpu time spent up to now is       50.0 secs

     End of self-consistent calculation

          k = 0.0000 0.0000 0.0000 (  5289 PWs)   bands (ev):

   -33.4048 -33.4048 -33.2020 -33.2020 -32.9533 -32.9533 -32.7746 -32.7746
   -14.5633 -14.5633 -14.3347 -14.3347 -14.0605 -14.0605 -13.8613 -13.8613
   -10.8017 -10.8017 -10.5538 -10.5538 -10.2940 -10.2940 -10.0428 -10.0428
    -9.6002  -9.6002  -9.2938  -9.2938  -9.2054  -9.2054  -8.8451  -8.8451
     3.7227   3.7227   5.9551   5.9551   6.2585   6.2585   7.0435   7.0435
     8.3656   8.3656   8.7309   8.7309   9.3389   9.3389   9.9280   9.9280
    10.6706  10.6706  11.4285  11.4285  11.8383  11.8383  12.1723  12.1723
    12.2955  12.2955  12.9134  12.9134

          k = 0.0000 0.0000 0.3132 (  5279 PWs)   bands (ev):

   -33.4034 -33.4034 -33.2007 -33.2007 -32.9551 -32.9551 -32.7758 -32.7758
   -14.5619 -14.5485 -14.3137 -14.3119 -14.0754 -14.0676 -13.8868 -13.8752
   -10.8186 -10.7780 -10.5348 -10.5088 -10.2991 -10.2651 -10.0762 -10.0482
    -9.6350  -9.5846  -9.3309  -9.3148  -9.2340  -9.1802  -8.8492  -8.8483
     4.0923   4.1299   5.6352   5.6896   6.5406   6.6406   6.9365   6.9834
     7.9934   8.0666   8.4821   8.5340   9.2974   9.3409   9.8078   9.8740
    10.8259  10.8424  11.3118  11.3239  11.8594  11.8955  12.0267  12.0354
    12.3728  12.4173  12.6913  12.7200

          k = 0.0000 0.0000-0.6263 (  5252 PWs)   bands (ev):

   -33.4019 -33.4019 -33.1994 -33.1994 -32.9570 -32.9570 -32.7769 -32.7769
   -14.5483 -14.5483 -14.2845 -14.2845 -14.0864 -14.0864 -13.9019 -13.9019
   -10.7993 -10.7993 -10.4756 -10.4756 -10.2743 -10.2743 -10.0881 -10.0881
    -9.6198  -9.6198  -9.3637  -9.3637  -9.1959  -9.1959  -8.8522  -8.8522
     4.6971   4.6971   5.5314   5.5314   6.2967   6.2967   6.9963   6.9963
     7.8460   7.8460   8.2690   8.2690   9.1895   9.1895   9.9939   9.9939
    11.0235  11.0235  11.1902  11.1902  11.9031  11.9031  12.0848  12.0848
    12.3710  12.3710  12.6246  12.6246

          k = 0.0000 0.5773 0.0000 (  5253 PWs)   bands (ev):

   -33.3891 -33.3889 -33.1902 -33.1901 -32.9421 -32.9419 -32.7665 -32.7664
   -14.5868 -14.5741 -14.3969 -14.3766 -14.0841 -14.0761 -13.9147 -13.9076
   -10.8345 -10.8084 -10.6396 -10.6131 -10.3216 -10.2753 -10.1495 -10.1257
    -9.6521  -9.6273  -9.3744  -9.3571  -9.2829  -9.2629  -9.0421  -9.0324
     4.7964   4.9215   5.7310   5.8790   6.6534   6.7437   7.0767   7.2664
     8.0241   8.1385   8.4552   8.5081   9.6939   9.7297  10.1335  10.2506
    10.4191  10.4914  11.0689  11.1977  11.7232  11.7671  11.9158  11.9415
    12.1609  12.2493  12.4781  12.5667

          k = 0.0000 0.5773 0.3132 (  5250 PWs)   bands (ev):

   -33.3882 -33.3881 -33.1893 -33.1891 -32.9432 -32.9431 -32.7673 -32.7671
   -14.5813 -14.5605 -14.3909 -14.3691 -14.0996 -14.0857 -13.9271 -13.9151
   -10.8384 -10.7914 -10.6469 -10.5773 -10.3118 -10.2930 -10.1602 -10.1279
    -9.6825  -9.6259  -9.4024  -9.3647  -9.2785  -9.2191  -9.0422  -9.0200
     5.1122   5.1906   5.7394   5.8578   6.7909   6.8504   7.1576   7.2525
     7.6264   7.7390   8.1462   8.2013   9.6004   9.6714  10.0924  10.1271
    10.4928  10.5805  10.8675  10.8958  11.6644  11.7480  12.1245  12.1397
    12.1767  12.2545  12.5259  12.5458

          k = 0.0000 0.5773-0.6263 (  5272 PWs)   bands (ev):

   -33.3876 -33.3874 -33.1883 -33.1882 -32.9442 -32.9441 -32.7680 -32.7678
   -14.5823 -14.5613 -14.3913 -14.3669 -14.1014 -14.0905 -13.9285 -13.9185
   -10.8548 -10.7818 -10.6338 -10.5820 -10.2936 -10.2776 -10.1432 -10.1121
    -9.7059  -9.6262  -9.4307  -9.4042  -9.2797  -9.1979  -9.0262  -9.0134
     5.2661   5.3452   5.7203   5.8221   6.6933   6.7139   7.2995   7.3845
     7.6580   7.7608   8.0881   8.1075   9.3166   9.4015  10.1280  10.2050
    10.7315  10.7845  11.2852  11.3166  11.3668  11.4466  11.5338  11.5476
    12.3447  12.4147  12.7927  12.7960

          k = 0.0000-1.1547 0.0000 (  5284 PWs)   bands (ev):

   -33.3750 -33.3750 -33.1761 -33.1761 -32.9318 -32.9318 -32.7572 -32.7572
   -14.6263 -14.6263 -14.4360 -14.4360 -14.1102 -14.1102 -13.9461 -13.9461
   -10.8651 -10.8651 -10.6771 -10.6771 -10.3675 -10.3675 -10.2050 -10.2050
    -9.6497  -9.6497  -9.4382  -9.4382  -9.2963  -9.2963  -9.1586  -9.1586
     5.7597   5.7597   5.9746   5.9746   6.3463   6.3463   6.8349   6.8349
     7.8749   7.8749   8.1339   8.1339   9.6415   9.6415   9.7611   9.7611
    10.8938  10.8938  11.1721  11.1721  11.7799  11.7799  11.9967  11.9967
    12.1739  12.1739  12.3704  12.3704

          k = 0.0000-1.1547 0.3132 (  5252 PWs)   bands (ev):

   -33.3748 -33.3748 -33.1757 -33.1757 -32.9322 -32.9322 -32.7573 -32.7573
   -14.6340 -14.6316 -14.4437 -14.4351 -14.1161 -14.1083 -13.9482 -13.9435
   -10.8768 -10.8568 -10.7130 -10.6646 -10.3717 -10.3475 -10.2069 -10.1661
    -9.6735  -9.6436  -9.4734  -9.4156  -9.3069  -9.2560  -9.1627  -9.1153
     5.6207   5.6620   5.7409   5.7616   6.5258   6.6580   6.7402   6.7918
     7.8861   7.9441   8.0986   8.1885   9.6889   9.6949   9.9268   9.9520
    10.9509  10.9781  11.1894  11.2675  11.7301  11.7495  12.1378  12.1933
    12.2896  12.3428  12.4675  12.5342

          k = 0.0000-1.1547-0.6263 (  5272 PWs)   bands (ev):

   -33.3747 -33.3747 -33.1753 -33.1753 -32.9326 -32.9326 -32.7575 -32.7575
   -14.6391 -14.6391 -14.4431 -14.4431 -14.1134 -14.1134 -13.9461 -13.9461
   -10.8683 -10.8683 -10.7033 -10.7033 -10.3483 -10.3483 -10.1694 -10.1694
    -9.6651  -9.6651  -9.4592  -9.4592  -9.2611  -9.2611  -9.1183  -9.1183
     5.5858   5.5858   5.6193   5.6193   6.5710   6.5710   6.7744   6.7744
     7.8301   7.8301   8.2784   8.2784   9.9495   9.9495  10.0067  10.0067
    11.0182  11.0182  11.1420  11.1420  11.9405  11.9405  12.3342  12.3342
    12.5393  12.5393  13.1525  13.1525

          k = 0.2500 0.1443 0.0000 (  5279 PWs)   bands (ev):

   -33.4032 -33.4032 -33.2038 -33.2037 -32.9522 -32.9522 -32.7757 -32.7757
   -14.5572 -14.5543 -14.3376 -14.3347 -14.0552 -14.0477 -13.8745 -13.8702
   -10.7933 -10.7767 -10.5662 -10.5466 -10.3000 -10.2509 -10.0925 -10.0503
    -9.5784  -9.5605  -9.3310  -9.3097  -9.1879  -9.1797  -8.9042  -8.8985
     3.9654   4.0427   5.4390   5.5846   6.5500   6.6393   7.0771   7.1767
     8.3925   8.4294   8.6899   8.7236   9.3806   9.4119   9.8577   9.9109
    10.7123  10.7604  11.3450  11.4387  11.8307  11.9116  12.0588  12.1546
    12.2930  12.3728  12.6737  12.7638

          k = 0.2500 0.1443 0.3132 (  5261 PWs)   bands (ev):

   -33.4019 -33.4019 -33.2024 -33.2023 -32.9539 -32.9539 -32.7770 -32.7770
   -14.5503 -14.5408 -14.3199 -14.3142 -14.0671 -14.0611 -13.8978 -13.8817
   -10.7877 -10.7618 -10.5493 -10.5133 -10.2890 -10.2414 -10.0991 -10.0716
    -9.6117  -9.5718  -9.3696  -9.3434  -9.1912  -9.1463  -8.9072  -8.9017
     4.3123   4.3789   5.6649   5.7956   6.3050   6.3271   7.0351   7.0836
     8.0293   8.0779   8.6661   8.7517   9.3725   9.3824   9.6765   9.7309
    10.9410  10.9661  11.3643  11.4090  11.7079  11.7548  11.8704  11.9549
    12.2181  12.2438  12.6739  12.6915

          k = 0.2500 0.1443-0.6263 (  5254 PWs)   bands (ev):

   -33.4006 -33.4005 -33.2009 -33.2009 -32.9557 -32.9557 -32.7783 -32.7783
   -14.5356 -14.5315 -14.3004 -14.2951 -14.0817 -14.0793 -13.9070 -13.9040
   -10.7762 -10.7562 -10.5114 -10.4923 -10.2724 -10.2533 -10.1041 -10.0865
    -9.6063  -9.5923  -9.4114  -9.3917  -9.1661  -9.1601  -8.9033  -8.9006
     4.8402   4.9076   5.4421   5.5037   6.3606   6.3740   7.0166   7.0753
     7.8327   7.8745   8.3432   8.3566   9.2858   9.3522   9.9474  10.0024
    11.0549  11.0712  11.2312  11.2695  11.7350  11.8104  11.9433  11.9777
    12.1719  12.2112  12.3105  12.3641

          k = 0.2500 0.7217 0.0000 (  5270 PWs)   bands (ev):

   -33.3884 -33.3882 -33.1909 -33.1908 -32.9415 -32.9414 -32.7671 -32.7670
   -14.5903 -14.5776 -14.3952 -14.3738 -14.0796 -14.0720 -13.9193 -13.9120
   -10.8206 -10.8125 -10.6199 -10.6124 -10.3230 -10.2918 -10.1725 -10.1285
    -9.6096  -9.5794  -9.4244  -9.3844  -9.2340  -9.2194  -9.0908  -9.0743
     5.1239   5.2699   5.3615   5.4773   6.7736   6.8242   6.9848   7.1157
     7.9987   8.0930   8.4728   8.4893   9.7356   9.7948   9.9975  10.0657
    10.7631  10.7944  10.9250  11.0499  11.7981  11.8500  11.8871  11.9214
    11.9716  12.0719  12.3439  12.4542

          k = 0.2500 0.7217 0.3132 (  5250 PWs)   bands (ev):

   -33.3876 -33.3875 -33.1899 -33.1898 -32.9426 -32.9425 -32.7679 -32.7678
   -14.5830 -14.5647 -14.3922 -14.3663 -14.0962 -14.0830 -13.9308 -13.9164
   -10.8151 -10.7890 -10.6416 -10.5862 -10.3180 -10.3102 -10.1690 -10.1271
    -9.6318  -9.5878  -9.4449  -9.3976  -9.2264  -9.1930  -9.0882  -9.0524
     5.1953   5.3321   5.5210   5.6081   6.8694   6.9279   7.1174   7.2010
     7.7314   7.8405   8.0560   8.0752   9.7890   9.8673  10.1682  10.2300
    10.6162  10.6311  10.8978  10.9545  11.6908  11.7599  11.9366  11.9792
    12.1237  12.1851  12.3168  12.3465

          k = 0.2500 0.7217-0.6263 (  5252 PWs)   bands (ev):

   -33.3870 -33.3868 -33.1889 -33.1888 -32.9436 -32.9434 -32.7687 -32.7685
   -14.5854 -14.5674 -14.3906 -14.3619 -14.0990 -14.0872 -13.9315 -13.9213
   -10.8164 -10.7780 -10.6579 -10.5856 -10.2982 -10.2863 -10.1484 -10.1082
    -9.6571  -9.6064  -9.4684  -9.4400  -9.2115  -9.1787  -9.0841  -9.0328
     5.4016   5.4782   5.5309   5.5664   6.6983   6.7386   6.9815   7.0761
     7.8871   7.9800   8.1217   8.2181   9.7559   9.8070  10.1162  10.2173
    10.8340  10.8883  11.1524  11.1772  11.3413  11.3835  11.5120  11.5603
    12.1607  12.1938  12.8156  12.8477

          k = 0.2500-1.0104 0.0000 (  5254 PWs)   bands (ev):

   -33.3750 -33.3750 -33.1761 -33.1761 -32.9318 -32.9318 -32.7572 -32.7572
   -14.6235 -14.6182 -14.4412 -14.4357 -14.1093 -14.1089 -13.9451 -13.9448
   -10.8657 -10.8545 -10.6908 -10.6767 -10.3599 -10.3522 -10.1980 -10.1947
    -9.6448  -9.6395  -9.4615  -9.4467  -9.3164  -9.3056  -9.1793  -9.1749
     5.7965   5.8119   5.9236   5.9614   6.4495   6.5882   6.8098   6.9301
     7.8566   7.9126   8.1426   8.1915   9.8378   9.8787   9.9774  10.0425
    10.7113  10.8286  11.0300  11.1280  11.7908  11.8323  12.0456  12.0785
    12.1380  12.2014  12.3839  12.4664

          k = 0.2500-1.0104 0.3132 (  5260 PWs)   bands (ev):

   -33.3748 -33.3748 -33.1757 -33.1757 -32.9322 -32.9322 -32.7573 -32.7573
   -14.6321 -14.6227 -14.4459 -14.4365 -14.1147 -14.1079 -13.9467 -13.9428
   -10.8720 -10.8562 -10.7113 -10.6747 -10.3589 -10.3314 -10.2003 -10.1650
    -9.6669  -9.6308  -9.4831  -9.4525  -9.3249  -9.2600  -9.1824  -9.1274
     5.6228   5.6480   5.7521   5.7646   6.7649   6.7972   6.9088   7.0507
     7.7269   7.8080   8.1149   8.2241  10.0482  10.0557  10.2731  10.3051
    10.6299  10.6902  10.8214  10.9351  11.8345  11.8672  11.9377  11.9869
    12.2568  12.3086  12.7028  12.7430

          k = 0.2500-1.0104-0.6263 (  5260 PWs)   bands (ev):

   -33.3747 -33.3747 -33.1753 -33.1753 -32.9326 -32.9326 -32.7575 -32.7575
   -14.6365 -14.6278 -14.4515 -14.4409 -14.1131 -14.1120 -13.9453 -13.9449
   -10.8769 -10.8561 -10.7190 -10.6892 -10.3416 -10.3325 -10.1707 -10.1587
    -9.6739  -9.6416  -9.4943  -9.4649  -9.2936  -9.2728  -9.1308  -9.1185
     5.6706   5.6868   5.7331   5.7590   6.5621   6.5950   6.8476   6.9005
     7.8212   7.8936   8.3006   8.3818   9.9789   9.9980  10.1181  10.1248
    10.9932  10.9999  11.1037  11.1120  11.5924  11.6453  11.7800  11.8154
    12.4570  12.5348  12.8957  12.9428

          k = 0.2500-0.4330 0.0000 (  5251 PWs)   bands (ev):

   -33.3901 -33.3899 -33.1892 -33.1891 -32.9426 -32.9424 -32.7660 -32.7658
   -14.5969 -14.5799 -14.3902 -14.3749 -14.0862 -14.0802 -13.9087 -13.9002
   -10.8460 -10.8200 -10.6261 -10.6096 -10.3117 -10.2890 -10.1441 -10.1037
    -9.6398  -9.6265  -9.3889  -9.3734  -9.3097  -9.2855  -9.0149  -9.0047
     4.5312   4.6467   5.9957   6.0113   6.6374   6.8467   7.0763   7.2492
     8.1013   8.1841   8.4179   8.4791   9.6649   9.6844  10.2295  10.3094
    10.5081  10.6464  11.1240  11.2461  11.7129  11.7793  12.0863  12.1126
    12.3322  12.4293  12.6269  12.6890

          k = 0.2500-0.4330 0.3132 (  5259 PWs)   bands (ev):

   -33.3893 -33.3891 -33.1883 -33.1882 -32.9437 -32.9435 -32.7666 -32.7665
   -14.6025 -14.5795 -14.3864 -14.3707 -14.0881 -14.0832 -13.9122 -13.9058
   -10.8734 -10.8052 -10.6170 -10.5979 -10.2979 -10.2758 -10.1335 -10.0806
    -9.6671  -9.6267  -9.4258  -9.4002  -9.3255  -9.2490  -9.0095  -8.9920
     4.7484   4.8825   5.9372   5.9747   6.7106   6.7604   6.8891   6.9770
     8.2944   8.4429   8.4941   8.5367   9.4122   9.4388  10.0501  10.0989
    10.5660  10.6331  11.0363  11.0536  11.6404  11.7721  11.9605  12.0306
    12.4155  12.4923  12.5654  12.6477

          k = 0.2500-0.4330-0.6263 (  5266 PWs)   bands (ev):

   -33.3884 -33.3883 -33.1875 -33.1873 -32.9449 -32.9447 -32.7673 -32.7671
   -14.6008 -14.5712 -14.3726 -14.3563 -14.1027 -14.0941 -13.9266 -13.9162
   -10.8818 -10.7958 -10.5990 -10.5686 -10.2982 -10.2821 -10.1405 -10.1032
    -9.6900  -9.6085  -9.4425  -9.4239  -9.3266  -9.2137  -8.9967  -8.9911
     5.1599   5.2391   5.9477   5.9797   6.5416   6.5755   7.0424   7.0824
     7.8713   7.9888   8.1737   8.2474   9.3682   9.4404  10.1529  10.1754
    10.6370  10.6708  11.3274  11.4113  11.5208  11.5576  11.6006  11.7152
    12.4383  12.4755  12.5865  12.6628

          k =-0.5000-0.2887 0.0000 (  5254 PWs)   bands (ev):

   -33.4016 -33.4016 -33.2055 -33.2055 -32.9511 -32.9511 -32.7769 -32.7769
   -14.5480 -14.5480 -14.3378 -14.3378 -14.0411 -14.0411 -13.8847 -13.8847
   -10.7684 -10.7684 -10.5583 -10.5583 -10.2553 -10.2553 -10.1024 -10.1024
    -9.5234  -9.5234  -9.3713  -9.3713  -9.1296  -9.1296  -8.9807  -8.9807
     4.5621   4.5621   4.8924   4.8924   6.9513   6.9513   7.0849   7.0849
     8.4657   8.4657   8.7049   8.7049   9.4156   9.4156   9.9015   9.9015
    10.8251  10.8251  11.2096  11.2096  11.9518  11.9518  12.1046  12.1046
    12.3754  12.3754  12.5330  12.5331

          k =-0.5000-0.2887 0.3132 (  5256 PWs)   bands (ev):

   -33.4003 -33.4003 -33.2040 -33.2039 -32.9527 -32.9527 -32.7783 -32.7783
   -14.5382 -14.5277 -14.3286 -14.3229 -14.0609 -14.0535 -13.9040 -13.8893
   -10.7610 -10.7311 -10.5620 -10.5343 -10.2667 -10.2367 -10.1307 -10.0772
    -9.5556  -9.5368  -9.4275  -9.3971  -9.1268  -9.1074  -8.9868  -8.9670
     4.7698   4.8198   5.0525   5.1497   6.6318   6.7203   7.2521   7.2719
     7.9729   8.0089   8.6594   8.7006   9.4529   9.4965   9.8236   9.9093
    10.8563  10.9067  11.2256  11.2618  11.5105  11.5848  12.0652  12.1718
    12.2721  12.3114  12.3570  12.4356

          k =-0.5000-0.2887-0.6263 (  5256 PWs)   bands (ev):

   -33.3991 -33.3991 -33.2024 -33.2024 -32.9544 -32.9544 -32.7797 -32.7797
   -14.5169 -14.5169 -14.3129 -14.3129 -14.0743 -14.0743 -13.9093 -13.9093
   -10.7238 -10.7238 -10.5379 -10.5379 -10.2511 -10.2511 -10.1023 -10.1023
    -9.5665  -9.5665  -9.4526  -9.4526  -9.1074  -9.1074  -8.9738  -8.9738
     5.1586   5.1586   5.3115   5.3115   6.4354   6.4354   7.0818   7.0818
     7.8822   7.8822   8.4480   8.4480   9.6345   9.6345   9.7635   9.7635
    11.0529  11.0529  11.4333  11.4333  11.5833  11.5833  11.7280  11.7280
    11.8764  11.8764  12.1979  12.1979

          k =-0.5000 0.2887 0.0000 (  5253 PWs)   bands (ev):

   -33.3894 -33.3892 -33.1899 -33.1897 -32.9421 -32.9419 -32.7666 -32.7664
   -14.5996 -14.5839 -14.3886 -14.3723 -14.0827 -14.0755 -13.9133 -13.9042
   -10.8368 -10.8172 -10.6169 -10.6014 -10.3185 -10.2982 -10.1677 -10.1069
    -9.5946  -9.5756  -9.4358  -9.3954  -9.2863  -9.2594  -9.0451  -9.0363
     4.6532   4.7912   5.8000   5.8962   6.7215   6.8803   7.0031   7.1141
     8.0811   8.1595   8.4069   8.4707   9.6404   9.6672  10.1612  10.2961
    10.6569  10.7727  11.1627  11.2358  11.8569  11.9235  12.0328  12.0873
    12.3099  12.3969  12.5534  12.5650

          k =-0.5000 0.2887 0.3132 (  5250 PWs)   bands (ev):

   -33.3885 -33.3884 -33.1889 -33.1888 -32.9432 -32.9431 -32.7673 -32.7671
   -14.5966 -14.5748 -14.3791 -14.3592 -14.0970 -14.0874 -13.9274 -13.9111
   -10.8402 -10.7979 -10.6209 -10.5758 -10.3200 -10.3063 -10.1623 -10.1216
    -9.6091  -9.5692  -9.4551  -9.4234  -9.2910  -9.2249  -9.0393  -9.0172
     4.8485   4.9507   5.8117   5.8815   6.8677   6.9853   7.1946   7.2097
     7.7751   7.8579   7.9547   8.0140   9.7940   9.8632  10.3255  10.4260
    10.7741  10.8456  11.0242  11.0568  11.6260  11.7012  11.9337  11.9830
    12.2096  12.2622  12.4913  12.5518

          k =-0.5000 0.2887-0.6263 (  5272 PWs)   bands (ev):

   -33.3879 -33.3877 -33.1880 -33.1879 -32.9442 -32.9441 -32.7680 -32.7678
   -14.6030 -14.5775 -14.3712 -14.3527 -14.1004 -14.0908 -13.9296 -13.9190
   -10.8517 -10.7927 -10.6142 -10.5721 -10.3000 -10.2936 -10.1456 -10.0994
    -9.6293  -9.5852  -9.4940  -9.4614  -9.2815  -9.1964  -9.0282  -9.0114
     5.1940   5.2941   5.7716   5.8436   6.5378   6.6107   6.8826   6.9220
     7.9709   8.0367   8.2570   8.3789   9.6742   9.7638  10.0921  10.1365
    11.0653  11.1411  11.2689  11.4088  11.4173  11.4551  11.6407  11.7098
    11.9253  12.0011  12.6539  12.7176

          k =-0.5000-1.4434 0.0000 (  5252 PWs)   bands (ev):

   -33.3750 -33.3750 -33.1762 -33.1762 -32.9317 -32.9317 -32.7572 -32.7572
   -14.6154 -14.6154 -14.4410 -14.4410 -14.1079 -14.1079 -13.9438 -13.9438
   -10.8550 -10.8550 -10.6905 -10.6905 -10.3445 -10.3445 -10.1875 -10.1875
    -9.6325  -9.6325  -9.4721  -9.4721  -9.3254  -9.3254  -9.1964  -9.1964
     5.8354   5.8354   5.9368   5.9368   6.6655   6.6655   6.9344   6.9344
     7.8645   7.8645   8.2284   8.2284  10.1238  10.1238  10.3447  10.3447
    10.6353  10.6353  10.9249  10.9249  11.8921  11.8921  12.1473  12.1473
    12.2154  12.2154  12.5205  12.5205

          k =-0.5000-1.4434 0.3132 (  5244 PWs)   bands (ev):

   -33.3748 -33.3748 -33.1758 -33.1757 -32.9322 -32.9322 -32.7573 -32.7573
   -14.6227 -14.6178 -14.4477 -14.4426 -14.1131 -14.1067 -13.9459 -13.9419
   -10.8729 -10.8471 -10.7202 -10.6738 -10.3511 -10.3194 -10.1944 -10.1522
    -9.6552  -9.6289  -9.5011  -9.4772  -9.3362  -9.2849  -9.1875  -9.1440
     5.7823   5.8212   5.9138   5.9322   6.5967   6.6630   6.8690   6.9858
     7.8053   7.9294   8.2697   8.4388  10.0110  10.0801  10.2376  10.3211
    10.8170  10.8473  11.0207  11.0706  11.5522  11.6055  11.6744  11.7239
    12.1822  12.2419  12.4746  12.5322

          k =-0.5000-1.4434-0.6263 (  5288 PWs)   bands (ev):

   -33.3747 -33.3747 -33.1753 -33.1753 -32.9326 -32.9326 -32.7575 -32.7575
   -14.6251 -14.6251 -14.4494 -14.4494 -14.1117 -14.1117 -13.9442 -13.9442
   -10.8665 -10.8665 -10.7034 -10.7034 -10.3251 -10.3251 -10.1604 -10.1604
    -9.6496  -9.6496  -9.5004  -9.5004  -9.3062  -9.3062  -9.1307  -9.1307
     5.7780   5.7780   5.9031   5.9031   6.5323   6.5323   6.9989   6.9989
     7.8932   7.8932   8.4255   8.4255   9.9330   9.9330  10.1728  10.1728
    11.1101  11.1101  11.2387  11.2387  11.3201  11.3201  11.4758  11.4758
    12.5276  12.5276  12.6287  12.6287

          k = 0.0000-0.5773 0.3132 (  5250 PWs)   bands (ev):

   -33.3884 -33.3882 -33.1893 -33.1892 -32.9430 -32.9429 -32.7672 -32.7671
   -14.5884 -14.5742 -14.3974 -14.3745 -14.0865 -14.0808 -13.9164 -13.9101
   -10.8499 -10.7968 -10.6418 -10.6071 -10.3000 -10.2605 -10.1345 -10.1078
    -9.6776  -9.6316  -9.4116  -9.3909  -9.2899  -9.2284  -9.0375  -9.0137
     4.8939   5.0239   5.7138   5.8382   6.7811   6.8559   6.9803   7.1095
     8.1931   8.2719   8.3882   8.4428   9.5167   9.5773  10.0958  10.1021
    10.4733  10.5788  11.0283  11.0705  11.6396  11.7173  11.8078  11.8875
    12.2590  12.3175  12.6065  12.7167

          k =-0.2500-0.1443 0.3132 (  5261 PWs)   bands (ev):

   -33.4019 -33.4019 -33.2023 -33.2023 -32.9539 -32.9539 -32.7770 -32.7770
   -14.5509 -14.5358 -14.3216 -14.3198 -14.0711 -14.0592 -13.8925 -13.8821
   -10.7975 -10.7483 -10.5432 -10.5286 -10.2866 -10.2542 -10.1066 -10.0500
    -9.5970  -9.5596  -9.3736  -9.3521  -9.1982  -9.1623  -8.9028  -8.8939
     4.3130   4.4094   5.2866   5.3753   6.7737   6.8840   7.1719   7.2473
     7.9224   7.9820   8.4450   8.4633   9.3401   9.4134   9.9943  10.0951
    10.7433  10.7658  11.3188  11.3475  11.7270  11.7557  11.9944  12.0500
    12.2614  12.3048  12.5409  12.5987

          k =-0.2500-0.7217 0.3132 (  5250 PWs)   bands (ev):

   -33.3878 -33.3876 -33.1900 -33.1898 -32.9424 -32.9423 -32.7679 -32.7677
   -14.5930 -14.5800 -14.3938 -14.3695 -14.0819 -14.0769 -13.9212 -13.9153
   -10.8260 -10.7985 -10.6483 -10.5969 -10.2997 -10.2737 -10.1523 -10.1087
    -9.6340  -9.6015  -9.4552  -9.4263  -9.2269  -9.1908  -9.0896  -9.0488
     5.2839   5.3157   5.4225   5.4957   6.6060   6.6672   6.9294   7.0363
     8.2874   8.3588   8.3923   8.4405   9.7278   9.7412  10.1437  10.2341
    10.5699  10.6404  10.8787  10.9151  11.6639  11.7531  11.7902  11.9156
    12.2106  12.2728  12.4802  12.5020

          k =-0.2500 1.0104 0.3132 (  5260 PWs)   bands (ev):

   -33.3748 -33.3748 -33.1757 -33.1757 -32.9322 -32.9322 -32.7573 -32.7573
   -14.6284 -14.6229 -14.4488 -14.4377 -14.1145 -14.1070 -13.9474 -13.9426
   -10.8801 -10.8439 -10.7254 -10.6615 -10.3640 -10.3363 -10.2007 -10.1536
    -9.6600  -9.6495  -9.4908  -9.4351  -9.3179  -9.2793  -9.1691  -9.1317
     5.8173   5.8502   5.9181   5.9389   6.3720   6.4726   6.6869   6.7619
     7.9383   8.0057   8.2421   8.3694   9.7423   9.7591   9.9770  10.0146
    11.0053  11.0399  11.2809  11.2978  11.5026  11.5377  11.8111  11.8699
    12.1878  12.2155  12.4609  12.5037

          k =-0.2500 0.4330 0.3132 (  5259 PWs)   bands (ev):

   -33.3892 -33.3890 -33.1883 -33.1882 -32.9438 -32.9437 -32.7666 -32.7665
   -14.5954 -14.5705 -14.3780 -14.3616 -14.1003 -14.0900 -13.9237 -13.9099
   -10.8586 -10.8044 -10.6243 -10.5692 -10.3121 -10.2912 -10.1536 -10.1224
    -9.6699  -9.6100  -9.4033  -9.3875  -9.3256  -9.2425  -9.0100  -8.9936
     4.8361   4.9072   5.9898   6.0167   6.7584   6.9120   7.2271   7.3172
     7.6257   7.7303   8.0549   8.1436   9.6537   9.7043  10.2259  10.3197
    10.5891  10.6196  10.9856  11.0197  11.6082  11.7314  12.0724  12.1577
    12.4589  12.4863  12.6624  12.7163

          k = 0.5000-0.2887 0.3132 (  5250 PWs)   bands (ev):

   -33.3887 -33.3885 -33.1890 -33.1889 -32.9431 -32.9429 -32.7672 -32.7671
   -14.6059 -14.5858 -14.3826 -14.3665 -14.0852 -14.0779 -13.9176 -13.9101
   -10.8539 -10.8045 -10.6221 -10.5872 -10.3018 -10.2835 -10.1511 -10.0829
    -9.6172  -9.5950  -9.4717  -9.4393  -9.2808  -9.2213  -9.0434  -9.0189
     4.9126   5.0680   5.7573   5.8605   6.5441   6.6029   6.8404   6.9123
     8.3370   8.4292   8.5424   8.6027   9.5061   9.5254  10.0331  10.1084
    10.8079  10.9325  11.1913  11.2415  11.5793  11.6583  11.8452  11.9282
    12.1756  12.2187  12.3978  12.4978

     the Fermi energy is    10.9819 ev

!    total energy              =   -2243.97778084 Ry
     Harris-Foulkes estimate   =   -2243.97778110 Ry
     estimated scf accuracy    <       0.00000039 Ry

     total all-electron energy =    -90248.321166 Ry

     The total energy is the sum of the following terms:

     one-electron contribution =     -44.83239020 Ry
     hartree contribution      =      45.30263725 Ry
     xc contribution           =    -257.09596983 Ry
     ewald contribution        =    -239.23544904 Ry
     one-center paw contrib.   =   -1748.11304027 Ry
     smearing contrib. (-TS)   =      -0.00356876 Ry

     convergence has been achieved in   9 iterations

     Forces acting on atoms (cartesian axes, Ry/au):

     atom    1 type  1   force =    -0.05878375    0.04185837   -0.80043321
     atom    2 type  1   force =     0.16429312    0.11185733   -0.76024671
     atom    3 type  1   force =     0.00974227   -0.78880956   -0.52519208
     atom    4 type  1   force =    -0.04776001   -0.85794212   -0.22004237
     atom    5 type  2   force =     0.04957989   -0.04868476    0.81295569
     atom    6 type  2   force =    -0.15296439   -0.12589599    0.77056397
     atom    7 type  2   force =     0.00459182    0.01103030   -0.01034209
     atom    8 type  2   force =    -0.00213659   -0.00077339   -0.00429105
     atom    9 type  2   force =    -0.01579142    0.79744286    0.53006051
     atom   10 type  2   force =     0.04922905    0.85991699    0.20696735

     Total force =     2.439087     Total SCF correction =     0.001907


     Computing stress (Cartesian axis) and pressure

     Message from routine stres:
     noncollinear stress + GGA not implemented

     BFGS Geometry Optimization

     number of scf cycles    =   1
     number of bfgs steps    =   0

     enthalpy new            =   -2243.9777808418 Ry

     new trust radius        =       0.5000000000 bohr
     new conv_thr            =       0.0000010000 Ry

     new unit-cell volume =    880.86361 a.u.^3 (   130.53052 Ang^3 )
     density =      8.07873 g/cm^3

CELL_PARAMETERS (angstrom)
   7.227900000   0.000000000   0.000000000
  -1.807000000   3.129800000   0.000000000
   0.000000000   0.000000000   5.770100000

ATOMIC_POSITIONS (crystal)
Gd       0.331976788   0.336995062   0.711673623
Gd       0.842048647   0.343174244   0.713597834
Gd       0.149664045   0.597067563   0.224852730
Gd       0.645940343   0.590964863   0.239463922
H        0.339220745   0.307902336   1.007725979
H        0.772174568   0.255386488   0.998896177
H        0.952718950   0.913773703   0.509404800
H        0.510501261   0.971831728   0.499294536
H        0.260795257   1.053794544   0.395880380
H        0.792659395   0.125409469   0.308510020



     Writing output data file 2309.save
     NEW-OLD atomic charge density approx. for the potential

     total cpu time spent up to now is       61.8 secs

     per-process dynamical memory:   135.5 Mb

     Self-consistent Calculation

     iteration #  1     ecut=    50.00 Ry     beta=0.70
     Davidson diagonalization with overlap
     ethr =  1.00E-06,  avg # of iterations = 14.8

     total cpu time spent up to now is       78.1 secs

     total energy              =   -2245.45633739 Ry
     Harris-Foulkes estimate   =   -2246.22821889 Ry
     estimated scf accuracy    <       0.13277548 Ry

     iteration #  2     ecut=    50.00 Ry     beta=0.70
     Davidson diagonalization with overlap
     ethr =  2.66E-04,  avg # of iterations =  3.3

     total cpu time spent up to now is       83.9 secs

     total energy              =   -2245.43906893 Ry
     Harris-Foulkes estimate   =   -2245.52127833 Ry
     estimated scf accuracy    <       0.17372671 Ry

     iteration #  3     ecut=    50.00 Ry     beta=0.70
     Davidson diagonalization with overlap
     ethr =  2.66E-04,  avg # of iterations =  3.1

     total cpu time spent up to now is       89.1 secs

     total energy              =   -2245.47518513 Ry
     Harris-Foulkes estimate   =   -2245.49396229 Ry
     estimated scf accuracy    <       0.04796543 Ry

     iteration #  4     ecut=    50.00 Ry     beta=0.70
     Davidson diagonalization with overlap
     ethr =  9.59E-05,  avg # of iterations =  3.0

     total cpu time spent up to now is       94.1 secs

     total energy              =   -2245.48116654 Ry
     Harris-Foulkes estimate   =   -2245.48958056 Ry
     estimated scf accuracy    <       0.02492238 Ry

     iteration #  5     ecut=    50.00 Ry     beta=0.70
     Davidson diagonalization with overlap
     ethr =  4.98E-05,  avg # of iterations =  2.1

     total cpu time spent up to now is       98.6 secs

     total energy              =   -2245.48500702 Ry
     Harris-Foulkes estimate   =   -2245.48512213 Ry
     estimated scf accuracy    <       0.00027133 Ry

     iteration #  6     ecut=    50.00 Ry     beta=0.70
     Davidson diagonalization with overlap
     ethr =  5.43E-07,  avg # of iterations =  4.4

     total cpu time spent up to now is      105.4 secs

     total energy              =   -2245.48509863 Ry
     Harris-Foulkes estimate   =   -2245.48519327 Ry
     estimated scf accuracy    <       0.00024693 Ry

     iteration #  7     ecut=    50.00 Ry     beta=0.70
     Davidson diagonalization with overlap
     ethr =  4.94E-07,  avg # of iterations =  3.0

     total cpu time spent up to now is      110.2 secs

     total energy              =   -2245.48514157 Ry
     Harris-Foulkes estimate   =   -2245.48516780 Ry
     estimated scf accuracy    <       0.00008761 Ry

     iteration #  8     ecut=    50.00 Ry     beta=0.70
     Davidson diagonalization with overlap
     ethr =  1.75E-07,  avg # of iterations =  2.6

     total cpu time spent up to now is      114.7 secs

     total energy              =   -2245.48515390 Ry
     Harris-Foulkes estimate   =   -2245.48515510 Ry
     estimated scf accuracy    <       0.00000259 Ry

     iteration #  9     ecut=    50.00 Ry     beta=0.70
     Davidson diagonalization with overlap
     ethr =  5.18E-09,  avg # of iterations =  3.6

     total cpu time spent up to now is      120.2 secs

     total energy              =   -2245.48515448 Ry
     Harris-Foulkes estimate   =   -2245.48515533 Ry
     estimated scf accuracy    <       0.00000216 Ry

     iteration # 10     ecut=    50.00 Ry     beta=0.70
     Davidson diagonalization with overlap
     ethr =  4.32E-09,  avg # of iterations =  3.0

     total cpu time spent up to now is      125.1 secs

     End of self-consistent calculation

          k = 0.0000 0.0000 0.0000 (  5289 PWs)   bands (ev):

   -33.0830 -33.0830 -32.9199 -32.9199 -32.5247 -32.5247 -32.4202 -32.4202
   -13.9298 -13.9298 -13.7561 -13.7561 -13.4149 -13.4149 -13.2079 -13.2079
    -9.9143  -9.9143  -9.8085  -9.8085  -9.5547  -9.5547  -9.3932  -9.3932
    -9.3273  -9.3273  -9.0419  -9.0419  -8.9111  -8.9111  -8.7173  -8.7173
     2.9744   2.9744   5.2233   5.2233   5.9802   5.9802   6.7558   6.7558
     7.9206   7.9206   8.1510   8.1510   9.8044   9.8044  10.6647  10.6647
    11.0744  11.0744  11.9801  11.9801  12.1219  12.1219  12.2905  12.2905
    12.3938  12.3938  13.0492  13.0492

          k = 0.0000 0.0000 0.3132 (  5279 PWs)   bands (ev):

   -33.0818 -33.0818 -32.9191 -32.9191 -32.5264 -32.5264 -32.4208 -32.4208
   -13.9314 -13.9248 -13.7351 -13.7338 -13.4256 -13.4184 -13.2288 -13.2282
    -9.9361  -9.9204  -9.7516  -9.7273  -9.5898  -9.5705  -9.3701  -9.3386
    -9.3166  -9.2765  -9.0714  -9.0670  -9.0053  -8.9740  -8.7228  -8.7219
     3.3570   3.3664   5.2211   5.2464   5.9645   5.9944   6.4022   6.4331
     7.4973   7.5380   8.1263   8.1532   9.9059   9.9438  10.7493  10.7657
    11.1179  11.1462  11.6886  11.7074  11.9738  12.0298  12.0635  12.1165
    12.5037  12.5370  12.7567  12.7799

          k = 0.0000 0.0000-0.6263 (  5252 PWs)   bands (ev):

   -33.0805 -33.0805 -32.9183 -32.9183 -32.5281 -32.5281 -32.4213 -32.4213
   -13.9273 -13.9273 -13.7091 -13.7091 -13.4299 -13.4299 -13.2510 -13.2510
    -9.9460  -9.9460  -9.6665  -9.6665  -9.5465  -9.5465  -9.3311  -9.3311
    -9.2684  -9.2684  -9.2122  -9.2122  -8.9936  -8.9936  -8.7269  -8.7269
     3.9382   3.9382   5.3106   5.3106   5.4950   5.4950   6.2891   6.2891
     7.1514   7.1514   8.1724   8.1724  10.0645  10.0645  10.6637  10.6637
    11.2956  11.2956  11.3908  11.3908  11.8670  11.8670  12.0512  12.0512
    12.5303  12.5303  12.8144  12.8144

          k = 0.0000 0.5773 0.0000 (  5253 PWs)   bands (ev):

   -33.0672 -33.0672 -32.9095 -32.9095 -32.5109 -32.5109 -32.4125 -32.4125
   -13.9469 -13.9300 -13.8101 -13.7916 -13.4243 -13.4162 -13.3001 -13.2828
    -9.9001  -9.8620  -9.8133  -9.7684  -9.6582  -9.6345  -9.5586  -9.5307
    -9.3370  -9.3025  -9.1514  -9.1337  -9.0750  -9.0541  -8.8855  -8.8721
     4.0737   4.1368   5.1542   5.3648   6.0987   6.1636   6.4350   6.5743
     7.9008   7.9578   8.1731   8.2657  10.0709  10.1252  10.3027  10.3483
    10.6023  10.6951  11.4206  11.4890  11.8199  11.8458  12.1857  12.2285
    12.4288  12.4702  12.6595  12.6998

          k = 0.0000 0.5773 0.3132 (  5250 PWs)   bands (ev):

   -33.0665 -33.0664 -32.9088 -32.9088 -32.5120 -32.5120 -32.4131 -32.4130
   -13.9460 -13.9241 -13.8001 -13.7829 -13.4335 -13.4234 -13.3088 -13.2969
    -9.9411  -9.8250  -9.7866  -9.7501  -9.6696  -9.6331  -9.5445  -9.5335
    -9.3284  -9.2563  -9.1943  -9.1485  -9.0811  -9.0431  -8.9075  -8.8835
     4.4145   4.4828   5.3394   5.5071   6.1266   6.1677   6.3662   6.4365
     7.3456   7.3702   7.8723   7.9029  10.0310  10.0452  10.2828  10.3184
    10.8124  10.8837  11.2422  11.2679  11.7472  11.8206  12.3920  12.4197
    12.5183  12.5293  12.6384  12.6721

          k = 0.0000 0.5773-0.6263 (  5272 PWs)   bands (ev):

   -33.0658 -33.0658 -32.9081 -32.9081 -32.5129 -32.5129 -32.4136 -32.4136
   -13.9479 -13.9215 -13.7929 -13.7717 -13.4405 -13.4309 -13.3222 -13.3031
    -9.9856  -9.8246  -9.7773  -9.7365  -9.6861  -9.6295  -9.5107  -9.4634
    -9.3110  -9.2473  -9.2129  -9.1821  -9.1008  -9.0230  -8.9091  -8.9021
     4.7175   4.7606   5.5999   5.6724   5.8889   5.9415   6.4261   6.5297
     6.8102   6.8763   7.9121   7.9262   9.7740   9.8033  10.2774  10.3125
    11.1117  11.1443  11.3639  11.3797  11.4130  11.5295  11.8974  11.9361
    12.8885  12.9199  13.0447  13.0552

          k = 0.0000-1.1547 0.0000 (  5284 PWs)   bands (ev):

   -33.0536 -33.0536 -32.8967 -32.8967 -32.4992 -32.4992 -32.4026 -32.4026
   -13.9661 -13.9661 -13.8453 -13.8453 -13.4509 -13.4509 -13.3574 -13.3574
    -9.9596  -9.9596  -9.8799  -9.8799  -9.6328  -9.6328  -9.5688  -9.5688
    -9.3913  -9.3913  -9.3031  -9.3031  -9.0407  -9.0407  -8.9663  -8.9663
     5.1110   5.1110   5.3244   5.3244   5.7441   5.7441   6.0695   6.0695
     7.7251   7.7251   8.1615   8.1615   9.7860   9.7860   9.9744   9.9744
    10.8637  10.8637  11.4088  11.4088  11.9129  11.9129  12.0982  12.0982
    12.4043  12.4043  12.8457  12.8457

          k = 0.0000-1.1547 0.3132 (  5252 PWs)   bands (ev):

   -33.0533 -33.0533 -32.8962 -32.8962 -32.4997 -32.4997 -32.4030 -32.4030
   -13.9699 -13.9645 -13.8486 -13.8424 -13.4600 -13.4525 -13.3644 -13.3578
    -9.9809  -9.9754  -9.9124  -9.8961  -9.6571  -9.6407  -9.5547  -9.5114
    -9.3987  -9.3713  -9.2669  -9.2413  -9.0472  -9.0336  -8.9878  -8.9552
     5.1099   5.1207   5.2527   5.2896   5.9555   5.9922   6.1995   6.2114
     7.3863   7.4400   7.8919   7.9158   9.6842   9.7056  10.0441  10.0760
    11.0750  11.1004  11.3159  11.3672  11.8709  11.9303  12.2838  12.3780
    12.4175  12.4859  12.6170  12.7349

          k = 0.0000-1.1547-0.6263 (  5272 PWs)   bands (ev):

   -33.0530 -33.0530 -32.8957 -32.8957 -32.5001 -32.5001 -32.4033 -32.4033
   -13.9682 -13.9682 -13.8460 -13.8460 -13.4609 -13.4609 -13.3653 -13.3653
    -9.9944  -9.9944  -9.9257  -9.9257  -9.6598  -9.6598  -9.5317  -9.5317
    -9.3191  -9.3191  -9.2394  -9.2394  -9.0420  -9.0420  -8.9763  -8.9763
     5.0866   5.0866   5.3753   5.3753   5.9508   5.9508   6.6910   6.6910
     7.0800   7.0800   7.3792   7.3792   9.7323   9.7323  10.1578  10.1578
    11.2252  11.2252  11.3167  11.3167  11.8452  11.8452  12.2580  12.2580
    13.0609  13.0609  13.2615  13.2615

          k = 0.2500 0.1443 0.0000 (  5279 PWs)   bands (ev):

   -33.0809 -33.0809 -32.9221 -32.9221 -32.5227 -32.5227 -32.4223 -32.4222
   -13.9220 -13.9153 -13.7650 -13.7598 -13.3961 -13.3876 -13.2345 -13.2276
    -9.8989  -9.8755  -9.7868  -9.7774  -9.6212  -9.5586  -9.4108  -9.3910
    -9.3146  -9.2745  -9.0201  -9.0172  -8.9556  -8.9429  -8.7794  -8.7725
     3.2451   3.2823   4.7969   4.8595   6.1843   6.2653   6.7199   6.8468
     7.9749   8.0119   8.2235   8.2722   9.8475   9.8582  10.5771  10.6236
    10.8908  10.9296  11.7459  11.7935  12.0165  12.0497  12.2521  12.3146
    12.5626  12.6309  12.8413  12.8796

          k = 0.2500 0.1443 0.3132 (  5261 PWs)   bands (ev):

   -33.0798 -33.0798 -32.9212 -32.9212 -32.5242 -32.5242 -32.4231 -32.4230
   -13.9152 -13.9112 -13.7484 -13.7418 -13.4028 -13.3998 -13.2534 -13.2442
    -9.8930  -9.8736  -9.7346  -9.7257  -9.5912  -9.5563  -9.4223  -9.3993
    -9.3022  -9.2638  -9.0859  -9.0757  -8.9786  -8.9596  -8.7809  -8.7743
     3.6022   3.6326   5.1103   5.1842   5.7759   5.8413   6.4635   6.5188
     7.6733   7.7082   8.2482   8.2791   9.8151   9.8308  10.4120  10.4640
    11.1447  11.1895  11.7148  11.7412  11.7957  11.8175  12.1610  12.2364
    12.5111  12.5551  12.6825  12.7331

          k = 0.2500 0.1443-0.6263 (  5254 PWs)   bands (ev):

   -33.0787 -33.0787 -32.9202 -32.9202 -32.5257 -32.5257 -32.4238 -32.4238
   -13.9127 -13.9036 -13.7303 -13.7209 -13.4161 -13.4079 -13.2714 -13.2628
    -9.8998  -9.8691  -9.6755  -9.6415  -9.5629  -9.5396  -9.4383  -9.4141
    -9.2683  -9.2499  -9.1853  -9.1783  -8.9808  -8.9777  -8.7786  -8.7760
     4.1484   4.1786   5.1430   5.1598   5.6309   5.6638   6.2011   6.2469
     7.2409   7.3122   8.1880   8.2153  10.1360  10.1582  10.1967  10.2137
    11.2262  11.2625  11.5472  11.5921  11.8200  11.8731  12.0993  12.2315
    12.2880  12.2978  12.7506  12.8094

          k = 0.2500 0.7217 0.0000 (  5270 PWs)   bands (ev):

   -33.0662 -33.0662 -32.9105 -32.9105 -32.5099 -32.5099 -32.4135 -32.4135
   -13.9416 -13.9270 -13.8156 -13.7941 -13.4084 -13.3994 -13.3167 -13.3028
    -9.8953  -9.8672  -9.7794  -9.7674  -9.6653  -9.6235  -9.6082  -9.5741
    -9.2588  -9.2369  -9.2085  -9.1488  -9.0138  -9.0062  -8.9612  -8.9182
     4.4580   4.5647   4.6821   4.7562   6.1993   6.2995   6.3618   6.4733
     7.9673   8.0289   8.2466   8.3160   9.9578  10.0345  10.2590  10.3275
    10.8987  10.9152  11.1265  11.1868  11.8506  11.8935  12.0497  12.0909
    12.1507  12.2877  12.5136  12.6155

          k = 0.2500 0.7217 0.3132 (  5250 PWs)   bands (ev):

   -33.0655 -33.0655 -32.9098 -32.9098 -32.5108 -32.5108 -32.4142 -32.4142
   -13.9357 -13.9203 -13.8112 -13.7873 -13.4187 -13.4108 -13.3244 -13.3114
    -9.8793  -9.8543  -9.8016  -9.7564  -9.6689  -9.6128  -9.5765  -9.5525
    -9.2926  -9.2543  -9.1940  -9.1740  -9.0225  -8.9982  -8.9621  -8.9184
     4.6643   4.7588   4.9178   4.9934   6.1974   6.3131   6.4324   6.5464
     7.3965   7.4354   7.7931   7.8395  10.0195  10.0746  10.4584  10.5230
    10.7804  10.8299  11.1092  11.1358  11.7821  11.8392  12.2439  12.2700
    12.3053  12.3931  12.6044  12.6310

          k = 0.2500 0.7217-0.6263 (  5252 PWs)   bands (ev):

   -33.0649 -33.0649 -32.9090 -32.9090 -32.5116 -32.5116 -32.4149 -32.4149
   -13.9338 -13.9159 -13.8069 -13.7807 -13.4285 -13.4188 -13.3333 -13.3175
    -9.9009  -9.8683  -9.8099  -9.7445  -9.6689  -9.6015  -9.5475  -9.4856
    -9.3121  -9.2422  -9.2244  -9.1720  -9.0365  -9.0013  -8.9601  -8.9168
     4.9892   5.0347   5.1249   5.2060   5.9455   6.0105   6.2872   6.3341
     7.2773   7.3360   7.6713   7.7253   9.9526   9.9847  10.4617  10.5150
    10.8487  10.9207  11.1335  11.1674  11.5206  11.5788  11.8157  11.8867
    13.0130  13.0322  13.0756  13.1321

          k = 0.2500-1.0104 0.0000 (  5254 PWs)   bands (ev):

   -33.0536 -33.0536 -32.8967 -32.8967 -32.4992 -32.4992 -32.4026 -32.4026
   -13.9656 -13.9634 -13.8449 -13.8427 -13.4488 -13.4486 -13.3552 -13.3550
    -9.9550  -9.9222  -9.8869  -9.8441  -9.6741  -9.6519  -9.5945  -9.5634
    -9.3785  -9.3434  -9.3135  -9.2502  -9.0838  -9.0706  -9.0126  -8.9971
     5.0944   5.1821   5.2618   5.3410   5.8195   5.8676   6.1731   6.2225
     7.7285   7.7939   8.1540   8.2305   9.9441  10.0042  10.1434  10.1537
    10.6693  10.7327  11.0754  11.1143  11.9994  12.0196  12.2381  12.2797
    12.4233  12.4564  12.7368  12.7825

          k = 0.2500-1.0104 0.3132 (  5260 PWs)   bands (ev):

   -33.0533 -33.0533 -32.8962 -32.8962 -32.4997 -32.4997 -32.4030 -32.4030
   -13.9692 -13.9626 -13.8456 -13.8405 -13.4581 -13.4508 -13.3621 -13.3556
    -9.9932  -9.9444  -9.9093  -9.8581  -9.6786  -9.6562  -9.5645  -9.5232
    -9.3780  -9.3488  -9.2529  -9.2196  -9.0921  -9.0573  -9.0325  -8.9798
     5.0558   5.0813   5.2827   5.3095   6.0536   6.1075   6.5675   6.6404
     7.1303   7.1699   7.9219   7.9746   9.9916  10.0324  10.2697  10.3119
    10.8010  10.8498  10.9283  10.9547  12.0033  12.0817  12.1952  12.2726
    12.3788  12.4638  12.8318  12.8857

          k = 0.2500-1.0104-0.6263 (  5260 PWs)   bands (ev):

   -33.0530 -33.0530 -32.8957 -32.8957 -32.5001 -32.5001 -32.4033 -32.4033
   -13.9678 -13.9658 -13.8437 -13.8418 -13.4595 -13.4591 -13.3636 -13.3633
   -10.0168  -9.9756  -9.9182  -9.8691  -9.6959  -9.6611  -9.5435  -9.4931
    -9.3622  -9.3236  -9.2280  -9.1962  -9.0917  -9.0703  -9.0078  -8.9826
     5.1539   5.1728   5.4517   5.4998   6.0092   6.0552   6.6364   6.6844
     7.0268   7.0707   7.4780   7.5226   9.8951   9.9161  10.2632  10.2843
    11.1595  11.2119  11.2833  11.3392  11.6531  11.6912  11.8497  11.9230
    12.8261  12.8897  13.1877  13.2178

          k = 0.2500-0.4330 0.0000 (  5251 PWs)   bands (ev):

   -33.0684 -33.0683 -32.9083 -32.9083 -32.5120 -32.5120 -32.4114 -32.4114
   -13.9562 -13.9365 -13.8033 -13.7864 -13.4365 -13.4279 -13.2847 -13.2689
    -9.9391  -9.8691  -9.8292  -9.7958  -9.6343  -9.6004  -9.5328  -9.4905
    -9.3427  -9.3198  -9.1942  -9.1728  -9.0558  -9.0145  -8.8817  -8.8592
     3.8150   3.8697   5.4104   5.6198   6.0311   6.1045   6.5954   6.7633
     7.8090   7.8965   8.1337   8.2453  10.1335  10.1770  10.3167  10.3550
    10.5967  10.7359  11.4692  11.5399  11.9375  11.9622  12.0885  12.1591
    12.7412  12.7917  12.8284  12.9222

          k = 0.2500-0.4330 0.3132 (  5259 PWs)   bands (ev):

   -33.0676 -33.0676 -32.9077 -32.9077 -32.5131 -32.5130 -32.4118 -32.4118
   -13.9598 -13.9344 -13.7942 -13.7741 -13.4415 -13.4335 -13.2987 -13.2786
   -10.0029  -9.8620  -9.7984  -9.7701  -9.6599  -9.5947  -9.5179  -9.4594
    -9.3302  -9.2658  -9.1954  -9.1433  -9.1085  -9.0600  -8.8817  -8.8599
     4.0901   4.1392   5.5870   5.7553   5.9403   5.9712   6.2952   6.3889
     7.6240   7.7271   8.2922   8.3516   9.9111   9.9237  10.3514  10.3862
    10.7054  10.7862  11.1942  11.2146  11.7988  11.9095  12.0441  12.1012
    12.6863  12.7512  12.8427  12.8835

          k = 0.2500-0.4330-0.6263 (  5266 PWs)   bands (ev):

   -33.0668 -33.0668 -32.9071 -32.9071 -32.5142 -32.5142 -32.4123 -32.4123
   -13.9617 -13.9312 -13.7797 -13.7606 -13.4477 -13.4415 -13.3126 -13.2930
   -10.0433  -9.8615  -9.7563  -9.7087  -9.6541  -9.5992  -9.5187  -9.4573
    -9.3158  -9.2592  -9.2067  -9.1821  -9.1312  -9.0515  -8.8867  -8.8682
     4.5776   4.6137   5.6183   5.6580   5.9170   5.9500   6.4037   6.4319
     6.9346   7.1141   7.9378   7.9798   9.9622   9.9829  10.3475  10.3591
    10.8437  10.8973  11.5119  11.5262  11.6869  11.7888  11.8269  11.8688
    12.6095  12.6812  12.9920  13.0267

          k =-0.5000-0.2887 0.0000 (  5254 PWs)   bands (ev):

   -33.0788 -33.0788 -32.9243 -32.9243 -32.5206 -32.5206 -32.4244 -32.4244
   -13.9065 -13.9065 -13.7696 -13.7696 -13.3587 -13.3587 -13.2642 -13.2642
    -9.8697  -9.8697  -9.7310  -9.7310  -9.5996  -9.5996  -9.4965  -9.4965
    -9.1501  -9.1501  -9.0805  -9.0805  -8.9536  -8.9536  -8.8478  -8.8478
     3.8414   3.8414   4.1881   4.1881   6.4810   6.4810   6.7455   6.7455
     8.0701   8.0701   8.3999   8.3999   9.8192   9.8192  10.5153  10.5153
    11.0121  11.0121  11.3632  11.3632  11.9808  11.9808  12.1942  12.1942
    12.5532  12.5532  12.6040  12.6040

          k =-0.5000-0.2887 0.3132 (  5256 PWs)   bands (ev):

   -33.0778 -33.0778 -32.9233 -32.9233 -32.5218 -32.5218 -32.4255 -32.4254
   -13.8984 -13.8934 -13.7587 -13.7580 -13.3751 -13.3716 -13.2780 -13.2740
    -9.8393  -9.8209  -9.7157  -9.6935  -9.5932  -9.5716  -9.5157  -9.4846
    -9.2139  -9.1795  -9.1484  -9.1151  -8.9509  -8.9398  -8.8573  -8.8337
     4.1077   4.1180   4.4532   4.4869   6.1290   6.2286   6.6045   6.6640
     7.5998   7.6117   8.2868   8.3466   9.8672   9.8937  10.3520  10.4087
    11.0418  11.0992  11.3223  11.3459  11.8633  11.9163  12.1841  12.2035
    12.5305  12.5489  12.7436  12.7701

          k =-0.5000-0.2887-0.6263 (  5256 PWs)   bands (ev):

   -33.0768 -33.0768 -32.9222 -32.9222 -32.5231 -32.5231 -32.4265 -32.4265
   -13.8848 -13.8848 -13.7462 -13.7462 -13.3891 -13.3891 -13.2882 -13.2882
    -9.7855  -9.7855  -9.6547  -9.6547  -9.5989  -9.5989  -9.4980  -9.4980
    -9.2452  -9.2452  -9.1667  -9.1667  -8.9494  -8.9494  -8.8459  -8.8459
     4.5412   4.5412   4.8752   4.8752   5.7750   5.7750   6.1402   6.1402
     7.4687   7.4687   8.1666   8.1666   9.8910   9.8910  10.2996  10.2996
    11.1390  11.1390  11.6232  11.6232  11.7129  11.7129  11.9206  11.9206
    12.4671  12.4671  12.8110  12.8110

          k =-0.5000 0.2887 0.0000 (  5253 PWs)   bands (ev):

   -33.0673 -33.0673 -32.9094 -32.9094 -32.5111 -32.5111 -32.4124 -32.4123
   -13.9510 -13.9344 -13.8076 -13.7890 -13.4251 -13.4137 -13.2981 -13.2848
    -9.9259  -9.8773  -9.8207  -9.7802  -9.6555  -9.6044  -9.5646  -9.5197
    -9.3165  -9.2610  -9.1492  -9.1333  -9.0688  -9.0519  -8.9085  -8.8897
     3.9715   4.0367   5.1542   5.2778   6.0925   6.2186   6.5349   6.6930
     7.9106   8.0024   8.1811   8.2723   9.9957  10.0654  10.3112  10.3998
    10.6563  10.7353  11.3784  11.4357  12.0243  12.0675  12.2026  12.2267
    12.3696  12.4495  12.6158  12.6391

          k =-0.5000 0.2887 0.3132 (  5250 PWs)   bands (ev):

   -33.0666 -33.0666 -32.9087 -32.9086 -32.5121 -32.5120 -32.4130 -32.4130
   -13.9483 -13.9302 -13.7992 -13.7786 -13.4302 -13.4253 -13.3117 -13.2940
    -9.9601  -9.8695  -9.7826  -9.7410  -9.6436  -9.6204  -9.5542  -9.5159
    -9.3194  -9.2363  -9.1781  -9.1523  -9.0987  -9.0500  -8.9104  -8.8819
     4.2435   4.2874   5.2322   5.3367   6.3357   6.4642   6.5874   6.6533
     7.3583   7.4673   7.6322   7.6372  10.1315  10.1795  10.5392  10.5879
    10.7873  10.8676  11.2696  11.2793  11.8784  11.9324  12.0676  12.0985
    12.4830  12.5056  12.6383  12.6953

          k =-0.5000 0.2887-0.6263 (  5272 PWs)   bands (ev):

   -33.0660 -33.0659 -32.9079 -32.9079 -32.5130 -32.5129 -32.4136 -32.4135
   -13.9499 -13.9268 -13.7905 -13.7692 -13.4385 -13.4306 -13.3227 -13.3046
   -10.0027  -9.8771  -9.7538  -9.7105  -9.6574  -9.5770  -9.5349  -9.5026
    -9.3301  -9.2384  -9.2009  -9.1742  -9.1126  -9.0317  -8.8974  -8.8899
     4.7048   4.7526   5.3108   5.3477   5.9374   5.9615   6.3390   6.4005
     7.2855   7.4260   7.7632   7.8267  10.0307  10.0549  10.3659  10.3796
    11.0954  11.2174  11.3867  11.4328  11.5224  11.6393  11.7811  11.8483
    12.5481  12.6106  13.0191  13.0779

          k =-0.5000-1.4434 0.0000 (  5252 PWs)   bands (ev):

   -33.0536 -33.0536 -32.8967 -32.8967 -32.4992 -32.4992 -32.4026 -32.4026
   -13.9630 -13.9630 -13.8424 -13.8424 -13.4465 -13.4465 -13.3528 -13.3528
    -9.9220  -9.9220  -9.8384  -9.8384  -9.6997  -9.6997  -9.5958  -9.5958
    -9.3303  -9.3303  -9.2331  -9.2331  -9.1264  -9.1264  -9.0536  -9.0536
     5.1339   5.1339   5.3268   5.3268   5.9277   5.9277   6.3277   6.3277
     7.8120   7.8120   8.2110   8.2110  10.1954  10.1954  10.3608  10.3608
    10.6172  10.6172  10.8698  10.8698  12.0743  12.0743  12.2656  12.2656
    12.4158  12.4158  12.5616  12.5616

          k =-0.5000-1.4434 0.3132 (  5244 PWs)   bands (ev):

   -33.0533 -33.0533 -32.8962 -32.8962 -32.4997 -32.4997 -32.4030 -32.4030
   -13.9663 -13.9620 -13.8438 -13.8381 -13.4557 -13.4485 -13.3603 -13.3541
    -9.9767  -9.9557  -9.8556  -9.8380  -9.7028  -9.6738  -9.5996  -9.5292
    -9.3454  -9.3196  -9.2354  -9.1920  -9.1550  -9.0927  -9.0561  -9.0190
     5.1794   5.2187   5.4282   5.4581   5.9457   6.0355   6.3724   6.4648
     7.4108   7.5309   7.8984   7.9939  10.1767  10.2192  10.3532  10.4209
    10.7949  10.8422  10.9853  11.0117  11.8229  11.8789  11.9672  12.0257
    12.3006  12.3825  12.5097  12.5604

          k =-0.5000-1.4434-0.6263 (  5288 PWs)   bands (ev):

   -33.0530 -33.0530 -32.8958 -32.8958 -32.5001 -32.5001 -32.4033 -32.4033
   -13.9654 -13.9654 -13.8395 -13.8395 -13.4578 -13.4578 -13.3615 -13.3615
   -10.0019 -10.0019  -9.8538  -9.8538  -9.6956  -9.6956  -9.5277  -9.5277
    -9.3335  -9.3335  -9.1895  -9.1895  -9.1300  -9.1300  -9.0155  -9.0155
     5.2511   5.2511   5.5785   5.5785   6.1094   6.1094   6.6048   6.6048
     7.0684   7.0684   7.5964   7.5964  10.1080  10.1080  10.3998  10.3998
    11.1510  11.1510  11.3548  11.3548  11.4702  11.4702  11.6280  11.6280
    12.7982  12.7982  13.0363  13.0363

          k = 0.0000-0.5773 0.3132 (  5250 PWs)   bands (ev):

   -33.0666 -33.0665 -32.9088 -32.9088 -32.5119 -32.5118 -32.4131 -32.4130
   -13.9482 -13.9273 -13.8041 -13.7814 -13.4310 -13.4235 -13.3131 -13.2886
    -9.9518  -9.8554  -9.7995  -9.7675  -9.6736  -9.6238  -9.5440  -9.4664
    -9.3218  -9.2612  -9.1792  -9.1371  -9.0997  -9.0461  -8.9107  -8.8752
     4.2765   4.3214   5.3059   5.4726   6.0739   6.1820   6.3447   6.4214
     7.5041   7.5601   8.2613   8.3274   9.8730   9.9077  10.2720  10.2822
    10.8284  10.8939  11.0816  11.1265  11.7562  11.8203  12.0806  12.1468
    12.5495  12.5881  12.8370  12.8634

          k =-0.2500-0.1443 0.3132 (  5261 PWs)   bands (ev):

   -33.0798 -33.0798 -32.9212 -32.9212 -32.5242 -32.5242 -32.4231 -32.4231
   -13.9197 -13.9063 -13.7493 -13.7417 -13.4088 -13.3945 -13.2513 -13.2451
    -9.9005  -9.8541  -9.7623  -9.7130  -9.6062  -9.5681  -9.4127  -9.3867
    -9.3042  -9.2268  -9.0867  -9.0721  -9.0062  -8.9711  -8.7767  -8.7688
     3.6080   3.6480   4.8184   4.8537   6.2634   6.3433   6.5876   6.6073
     7.3439   7.3975   8.1748   8.2215  10.0886  10.1123  10.4360  10.5038
    11.0551  11.0870  11.6401  11.6677  11.7866  11.8214  12.1476  12.2228
    12.4748  12.5080  12.6816  12.7292

          k =-0.2500-0.7217 0.3132 (  5250 PWs)   bands (ev):

   -33.0656 -33.0656 -32.9098 -32.9098 -32.5107 -32.5107 -32.4142 -32.4142
   -13.9397 -13.9230 -13.8115 -13.7876 -13.4181 -13.4076 -13.3253 -13.3084
    -9.9091  -9.8859  -9.8028  -9.7621  -9.6369  -9.6124  -9.5833  -9.5021
    -9.2876  -9.2616  -9.2048  -9.1687  -9.0168  -8.9990  -8.9626  -8.9112
     4.7087   4.7614   4.7929   4.8954   6.0751   6.1751   6.2473   6.3324
     7.7778   7.8159   8.1834   8.2422   9.9929  10.0069  10.3521  10.4355
    10.5783  10.6204  11.0106  11.0361  11.8446  11.9035  12.1012  12.2034
    12.3767  12.4341  12.6444  12.6624

          k =-0.2500 1.0104 0.3132 (  5260 PWs)   bands (ev):

   -33.0533 -33.0533 -32.8962 -32.8962 -32.4997 -32.4997 -32.4030 -32.4030
   -13.9672 -13.9636 -13.8470 -13.8398 -13.4577 -13.4502 -13.3626 -13.3563
    -9.9860  -9.9495  -9.9067  -9.8552  -9.6888  -9.6460  -9.5731  -9.5197
    -9.3693  -9.3572  -9.2715  -9.2211  -9.0820  -9.0665  -9.0093  -8.9874
     5.2561   5.2853   5.4182   5.4575   5.8268   5.8528   6.0781   6.1412
     7.6304   7.6750   7.8593   7.9070   9.8512   9.9153  10.1164  10.1545
    10.9856  11.0096  11.2157  11.2568  11.7593  11.8307  12.0662  12.1527
    12.4226  12.4678  12.7321  12.7545

          k =-0.2500 0.4330 0.3132 (  5259 PWs)   bands (ev):

   -33.0675 -33.0675 -32.9077 -32.9077 -32.5132 -32.5132 -32.4118 -32.4118
   -13.9575 -13.9329 -13.7902 -13.7742 -13.4417 -13.4360 -13.2982 -13.2827
    -9.9937  -9.8589  -9.7768  -9.7363  -9.6509  -9.6206  -9.5352  -9.4969
    -9.3248  -9.2580  -9.2012  -9.1550  -9.0956  -9.0690  -8.8853  -8.8641
     4.1507   4.1969   5.4854   5.6170   6.2713   6.3619   6.5035   6.5951
     7.2507   7.3179   7.7430   7.7756  10.2164  10.2618  10.3656  10.3796
    10.7091  10.7689  11.3342  11.3613  11.8416  11.9631  12.2384  12.2601
    12.6104  12.7206  12.8136  12.8436

          k = 0.5000-0.2887 0.3132 (  5250 PWs)   bands (ev):

   -33.0667 -33.0667 -32.9087 -32.9086 -32.5120 -32.5119 -32.4130 -32.4129
   -13.9523 -13.9310 -13.7999 -13.7803 -13.4327 -13.4188 -13.3088 -13.2951
    -9.9768  -9.8831  -9.7934  -9.7630  -9.6416  -9.5702  -9.5469  -9.5006
    -9.3333  -9.2422  -9.1927  -9.1562  -9.0765  -9.0452  -8.9002  -8.8816
     4.2675   4.3393   5.2741   5.3450   5.9972   6.0718   6.2099   6.2994
     7.8949   7.9676   8.2319   8.2579   9.9186   9.9350  10.2421  10.2893
    10.8157  10.9333  11.2031  11.2374  11.8501  11.8955  12.0280  12.0988
    12.3681  12.4299  12.7387  12.7746

     the Fermi energy is    11.1281 ev

!    total energy              =   -2245.48515470 Ry
     Harris-Foulkes estimate   =   -2245.48515505 Ry
     estimated scf accuracy    <       0.00000038 Ry

     total all-electron energy =    -90249.828540 Ry

     The total energy is the sum of the following terms:

     one-electron contribution =     -38.43407217 Ry
     hartree contribution      =      42.02428562 Ry
     xc contribution           =    -256.32822201 Ry
     ewald contribution        =    -244.66968203 Ry
     one-center paw contrib.   =   -1748.07400875 Ry
     smearing contrib. (-TS)   =      -0.00345535 Ry

     convergence has been achieved in  10 iterations

     Forces acting on atoms (cartesian axes, Ry/au):

     atom    1 type  1   force =    -0.01103924    0.00555777   -0.12585918
     atom    2 type  1   force =     0.03256298   -0.00632588   -0.13981304
     atom    3 type  1   force =    -0.00506398   -0.11182474   -0.07847997
     atom    4 type  1   force =     0.00647261   -0.12208847   -0.06206139
     atom    5 type  2   force =     0.00869094   -0.01640174    0.18569135
     atom    6 type  2   force =    -0.03305750   -0.02599983    0.16225135
     atom    7 type  2   force =     0.00001411    0.01315613   -0.01640079
     atom    8 type  2   force =     0.00086760   -0.00660681   -0.00826634
     atom    9 type  2   force =    -0.00339358    0.11941758    0.03269658
     atom   10 type  2   force =     0.00394607    0.15111599    0.05024142

     Total force =     0.422282     Total SCF correction =     0.002644


     Computing stress (Cartesian axis) and pressure

     Message from routine stres:
     noncollinear stress + GGA not implemented

     number of scf cycles    =   2
     number of bfgs steps    =   1

     enthalpy old            =   -2243.9777808417 Ry
     enthalpy new            =   -2245.4851547029 Ry

     CASE: enthalpy_new < enthalpy_old

     new trust radius        =       0.1477288641 bohr
     new conv_thr            =       0.0000010000 Ry

     new unit-cell volume =    880.86361 a.u.^3 (   130.53052 Ang^3 )
     density =      8.07873 g/cm^3

CELL_PARAMETERS (angstrom)
   7.227900000   0.000000000   0.000000000
  -1.807000000   3.129800000   0.000000000
   0.000000000   0.000000000   5.770100000

ATOMIC_POSITIONS (crystal)
Gd       0.331525757   0.337459887   0.704694063
Gd       0.843019128   0.340113018   0.704734226
Gd       0.146601403   0.586867340   0.220725169
Gd       0.644041068   0.579776546   0.234518326
H        0.339004627   0.305342366   1.021192418
H        0.769496231   0.252101938   1.010144096
H        0.953313194   0.916271943   0.507686159
H        0.510259725   0.970501491   0.498420370
H        0.263506764   1.065400588   0.394919765
H        0.796932102   0.142464882   0.312265408



     Writing output data file 2309.save
     NEW-OLD atomic charge density approx. for the potential

     total cpu time spent up to now is      129.6 secs

     per-process dynamical memory:   135.5 Mb

     Self-consistent Calculation

     iteration #  1     ecut=    50.00 Ry     beta=0.70
     Davidson diagonalization with overlap
     ethr =  1.00E-06,  avg # of iterations =  8.5

     total cpu time spent up to now is      141.6 secs

     total energy              =   -2245.57967954 Ry
     Harris-Foulkes estimate   =   -2245.60940067 Ry
     estimated scf accuracy    <       0.00630608 Ry

     iteration #  2     ecut=    50.00 Ry     beta=0.70
     Davidson diagonalization with overlap
     ethr =  1.26E-05,  avg # of iterations =  3.5

     total cpu time spent up to now is      147.5 secs

     total energy              =   -2245.57825837 Ry
     Harris-Foulkes estimate   =   -2245.58384632 Ry
     estimated scf accuracy    <       0.01371825 Ry

     iteration #  3     ecut=    50.00 Ry     beta=0.70
     Davidson diagonalization with overlap
     ethr =  1.26E-05,  avg # of iterations =  3.5

     total cpu time spent up to now is      153.1 secs

     total energy              =   -2245.58074856 Ry
     Harris-Foulkes estimate   =   -2245.58175720 Ry
     estimated scf accuracy    <       0.00264305 Ry

     iteration #  4     ecut=    50.00 Ry     beta=0.70
     Davidson diagonalization with overlap
     ethr =  5.29E-06,  avg # of iterations =  3.2

     total cpu time spent up to now is      158.1 secs

     total energy              =   -2245.58108995 Ry
     Harris-Foulkes estimate   =   -2245.58148430 Ry
     estimated scf accuracy    <       0.00107918 Ry

     iteration #  5     ecut=    50.00 Ry     beta=0.70
     Davidson diagonalization with overlap
     ethr =  2.16E-06,  avg # of iterations =  2.2

     total cpu time spent up to now is      162.6 secs

     total energy              =   -2245.58125562 Ry
     Harris-Foulkes estimate   =   -2245.58127186 Ry
     estimated scf accuracy    <       0.00002698 Ry

     iteration #  6     ecut=    50.00 Ry     beta=0.70
     Davidson diagonalization with overlap
     ethr =  5.40E-08,  avg # of iterations =  3.6

     total cpu time spent up to now is      168.4 secs

     total energy              =   -2245.58126247 Ry
     Harris-Foulkes estimate   =   -2245.58127389 Ry
     estimated scf accuracy    <       0.00003253 Ry

     iteration #  7     ecut=    50.00 Ry     beta=0.70
     Davidson diagonalization with overlap
     ethr =  5.40E-08,  avg # of iterations =  2.9

     total cpu time spent up to now is      173.2 secs

     total energy              =   -2245.58126773 Ry
     Harris-Foulkes estimate   =   -2245.58126861 Ry
     estimated scf accuracy    <       0.00000230 Ry

     iteration #  8     ecut=    50.00 Ry     beta=0.70
     Davidson diagonalization with overlap
     ethr =  4.61E-09,  avg # of iterations =  2.9

     total cpu time spent up to now is      178.0 secs

     End of self-consistent calculation

          k = 0.0000 0.0000 0.0000 (  5289 PWs)   bands (ev):

   -33.0672 -33.0672 -32.9277 -32.9277 -32.5353 -32.5353 -32.4381 -32.4381
   -13.9065 -13.9065 -13.7477 -13.7477 -13.4069 -13.4069 -13.1976 -13.1976
    -9.8855  -9.8855  -9.7814  -9.7814  -9.5349  -9.5349  -9.3614  -9.3614
    -9.3019  -9.3019  -9.0310  -9.0310  -8.8736  -8.8736  -8.7329  -8.7329
     2.9012   2.9012   5.1225   5.1225   5.9653   5.9653   6.6565   6.6565
     7.9110   7.9110   8.1660   8.1660   9.8549   9.8549  10.6938  10.6938
    11.2869  11.2869  12.0142  12.0142  12.1079  12.1079  12.3214  12.3214
    12.4477  12.4477  13.0413  13.0413

          k = 0.0000 0.0000 0.3132 (  5279 PWs)   bands (ev):

   -33.0658 -33.0658 -32.9270 -32.9270 -32.5370 -32.5370 -32.4386 -32.4386
   -13.9087 -13.9029 -13.7267 -13.7253 -13.4170 -13.4103 -13.2185 -13.2173
    -9.9081  -9.8958  -9.7177  -9.6996  -9.5762  -9.5615  -9.3297  -9.3111
    -9.2883  -9.2495  -9.0432  -9.0314  -8.9774  -8.9603  -8.7389  -8.7378
     3.2770   3.2811   5.1599   5.1825   5.9143   5.9396   6.3182   6.3460
     7.4720   7.5167   8.1360   8.1628   9.9375   9.9792  10.8717  10.8925
    11.2392  11.2683  11.7484  11.7831  11.9724  12.0200  12.0751  12.1289
    12.5168  12.5440  12.7478  12.7750

          k = 0.0000 0.0000-0.6263 (  5252 PWs)   bands (ev):

   -33.0644 -33.0644 -32.9263 -32.9263 -32.5387 -32.5387 -32.4392 -32.4392
   -13.9059 -13.9059 -13.7009 -13.7009 -13.4210 -13.4210 -13.2401 -13.2401
    -9.9201  -9.9201  -9.6395  -9.6395  -9.5389  -9.5389  -9.3057  -9.3057
    -9.2299  -9.2299  -9.1625  -9.1625  -8.9838  -8.9838  -8.7430  -8.7430
     3.8319   3.8319   5.2694   5.2694   5.4722   5.4722   6.1838   6.1838
     7.1075   7.1075   8.1876   8.1876  10.0925  10.0925  10.8266  10.8266
    11.3570  11.3570  11.4354  11.4354  11.8508  11.8508  12.0403  12.0403
    12.5370  12.5370  12.8237  12.8237

          k = 0.0000 0.5773 0.0000 (  5253 PWs)   bands (ev):

   -33.0508 -33.0508 -32.9180 -32.9180 -32.5212 -32.5212 -32.4306 -32.4306
   -13.9227 -13.9048 -13.8022 -13.7849 -13.4158 -13.4065 -13.2938 -13.2745
    -9.8679  -9.8225  -9.7788  -9.7498  -9.6295  -9.6111  -9.5498  -9.5154
    -9.3035  -9.2637  -9.1441  -9.1261  -9.0557  -9.0436  -8.8770  -8.8649
     3.9902   4.0342   5.0891   5.2957   6.0661   6.1375   6.3454   6.4769
     7.8767   7.9248   8.1534   8.2604  10.1065  10.1610  10.3551  10.3962
    10.6400  10.7322  11.4712  11.5239  11.8549  11.8815  12.2248  12.2689
    12.4401  12.4826  12.6399  12.6808

          k = 0.0000 0.5773 0.3132 (  5250 PWs)   bands (ev):

   -33.0499 -33.0499 -32.9173 -32.9173 -32.5223 -32.5223 -32.4312 -32.4312
   -13.9225 -13.8995 -13.7916 -13.7761 -13.4242 -13.4134 -13.3023 -13.2891
    -9.9131  -9.7860  -9.7596  -9.7200  -9.6513  -9.6044  -9.5313  -9.5230
    -9.2909  -9.2126  -9.1698  -9.1365  -9.0613  -9.0380  -8.9090  -8.8858
     4.3228   4.3790   5.2960   5.4657   6.0770   6.1208   6.2730   6.3371
     7.3047   7.3310   7.8620   7.9060  10.0445  10.0626  10.3311  10.3696
    10.8677  10.9443  11.3052  11.3356  11.7442  11.8160  12.4259  12.4582
    12.5337  12.5534  12.6336  12.6617

          k = 0.0000 0.5773-0.6263 (  5272 PWs)   bands (ev):

   -33.0492 -33.0491 -32.9167 -32.9167 -32.5233 -32.5233 -32.4317 -32.4317
   -13.9248 -13.8972 -13.7840 -13.7643 -13.4308 -13.4207 -13.3161 -13.2954
    -9.9557  -9.7895  -9.7503  -9.7037  -9.6588  -9.6065  -9.5149  -9.4608
    -9.2694  -9.2015  -9.1777  -9.1415  -9.0874  -9.0175  -8.9210  -8.9134
     4.6524   4.6761   5.5808   5.6445   5.8287   5.8852   6.3087   6.4164
     6.7503   6.8067   7.9119   7.9229   9.8164   9.8397  10.2846  10.3169
    11.1579  11.1931  11.3621  11.3808  11.4220  11.5392  11.9617  12.0030
    12.8804  12.9124  13.0688  13.0875

          k = 0.0000-1.1547 0.0000 (  5284 PWs)   bands (ev):

   -33.0368 -33.0368 -32.9055 -32.9055 -32.5094 -32.5094 -32.4208 -32.4208
   -13.9401 -13.9401 -13.8383 -13.8383 -13.4405 -13.4405 -13.3539 -13.3539
    -9.9174  -9.9174  -9.8595  -9.8595  -9.6169  -9.6169  -9.5446  -9.5446
    -9.3660  -9.3660  -9.2971  -9.2971  -9.0254  -9.0254  -8.9468  -8.9468
     5.0186   5.0186   5.2183   5.2183   5.6642   5.6642   6.0603   6.0603
     7.6991   7.6991   8.1757   8.1757   9.8011   9.8011  10.0130  10.0130
    10.8676  10.8676  11.4619  11.4619  11.9394  11.9394  12.1130  12.1130
    12.4052  12.4052  12.8788  12.8788

          k = 0.0000-1.1547 0.3132 (  5252 PWs)   bands (ev):

   -33.0365 -33.0365 -32.9051 -32.9050 -32.5099 -32.5099 -32.4211 -32.4211
   -13.9436 -13.9379 -13.8413 -13.8354 -13.4493 -13.4423 -13.3611 -13.3544
    -9.9382  -9.9337  -9.8880  -9.8770  -9.6339  -9.6162  -9.5481  -9.5125
    -9.3713  -9.3302  -9.2504  -9.2361  -9.0269  -9.0122  -8.9771  -8.9454
     5.0976   5.1084   5.1492   5.1792   5.8747   5.8998   6.1385   6.1454
     7.3190   7.3779   7.9207   7.9496   9.6872   9.7069  10.0561  10.0865
    11.0819  11.1093  11.3529  11.3992  11.8873  11.9532  12.2834  12.3809
    12.4171  12.4995  12.6631  12.7806

          k = 0.0000-1.1547-0.6263 (  5272 PWs)   bands (ev):

   -33.0361 -33.0361 -32.9046 -32.9046 -32.5104 -32.5104 -32.4215 -32.4215
   -13.9413 -13.9413 -13.8387 -13.8387 -13.4504 -13.4504 -13.3622 -13.3622
    -9.9521  -9.9521  -9.9029  -9.9029  -9.6361  -9.6361  -9.5304  -9.5304
    -9.2901  -9.2901  -9.2166  -9.2166  -9.0251  -9.0251  -8.9698  -8.9698
     5.0801   5.0801   5.3451   5.3451   5.8582   5.8582   6.5205   6.5205
     7.0459   7.0459   7.4006   7.4006   9.7042   9.7042  10.1558  10.1558
    11.2338  11.2338  11.3603  11.3603  11.8399  11.8399  12.2790  12.2790
    13.0931  13.0931  13.2162  13.2162

          k = 0.2500 0.1443 0.0000 (  5279 PWs)   bands (ev):

   -33.0647 -33.0647 -32.9303 -32.9303 -32.5331 -32.5331 -32.4403 -32.4403
   -13.8979 -13.8907 -13.7580 -13.7523 -13.3875 -13.3779 -13.2257 -13.2177
    -9.8656  -9.8417  -9.7617  -9.7569  -9.5997  -9.5323  -9.3834  -9.3676
    -9.2902  -9.2452  -9.0074  -8.9986  -8.9212  -8.9128  -8.7950  -8.7873
     3.1768   3.2034   4.7372   4.7800   6.1377   6.2143   6.6233   6.7460
     7.9687   7.9966   8.2356   8.2922   9.8902   9.9005  10.6631  10.7020
    10.9290  10.9689  11.8244  11.8596  12.0331  12.0633  12.2761  12.3311
    12.5927  12.6485  12.8119  12.8578

          k = 0.2500 0.1443 0.3132 (  5261 PWs)   bands (ev):

   -33.0635 -33.0635 -32.9294 -32.9294 -32.5346 -32.5346 -32.4411 -32.4411
   -13.8918 -13.8874 -13.7414 -13.7346 -13.3939 -13.3896 -13.2440 -13.2345
    -9.8660  -9.8402  -9.7070  -9.6993  -9.5816  -9.5396  -9.3932  -9.3743
    -9.2613  -9.2351  -9.0474  -9.0350  -8.9638  -8.9563  -8.7960  -8.7881
     3.5251   3.5471   5.0503   5.0997   5.7493   5.8091   6.3663   6.4267
     7.6690   7.7032   8.2250   8.2516   9.8389   9.8600  10.4976  10.5412
    11.2023  11.2470  11.7311  11.7639  11.8523  11.8650  12.2262  12.2978
    12.5413  12.5830  12.6536  12.6995

          k = 0.2500 0.1443-0.6263 (  5254 PWs)   bands (ev):

   -33.0623 -33.0623 -32.9286 -32.9286 -32.5361 -32.5361 -32.4419 -32.4419
   -13.8900 -13.8809 -13.7233 -13.7138 -13.4066 -13.3973 -13.2622 -13.2527
    -9.8714  -9.8426  -9.6462  -9.6133  -9.5555  -9.5304  -9.4153  -9.3935
    -9.2249  -9.2056  -9.1395  -9.1256  -8.9789  -8.9720  -8.7946  -8.7914
     4.0515   4.0721   5.1093   5.1271   5.6082   5.6399   6.0843   6.1364
     7.2029   7.2740   8.1843   8.2072  10.1690  10.1895  10.2665  10.2840
    11.2452  11.2830  11.5902  11.6422  11.8113  11.8718  12.1317  12.2556
    12.2960  12.3252  12.7713  12.8378

          k = 0.2500 0.7217 0.0000 (  5270 PWs)   bands (ev):

   -33.0495 -33.0495 -32.9193 -32.9193 -32.5201 -32.5201 -32.4317 -32.4317
   -13.9157 -13.9011 -13.8090 -13.7882 -13.3978 -13.3881 -13.3121 -13.2966
    -9.8530  -9.8225  -9.7564  -9.7464  -9.6439  -9.6100  -9.5738  -9.5670
    -9.2330  -9.2104  -9.1875  -9.1368  -8.9997  -8.9880  -8.9560  -8.9153
     4.3577   4.4540   4.6447   4.7159   6.1372   6.2425   6.2753   6.3959
     7.9606   8.0098   8.2458   8.3190   9.9733  10.0488  10.2735  10.3423
    10.9318  10.9514  11.1807  11.2343  11.8580  11.9079  12.0544  12.0990
    12.1466  12.2925  12.5414  12.6374

          k = 0.2500 0.7217 0.3132 (  5250 PWs)   bands (ev):

   -33.0487 -33.0487 -32.9185 -32.9185 -32.5211 -32.5210 -32.4324 -32.4324
   -13.9096 -13.8946 -13.8047 -13.7818 -13.4076 -13.3993 -13.3195 -13.3055
    -9.8380  -9.8199  -9.7719  -9.7344  -9.6436  -9.5943  -9.5585  -9.5442
    -9.2606  -9.2219  -9.1652  -9.1533  -9.0031  -8.9881  -8.9660  -8.9228
     4.5806   4.6662   4.8828   4.9506   6.1240   6.2470   6.3355   6.4532
     7.3731   7.4066   7.7951   7.8460  10.0413  10.0910  10.4720  10.5370
    10.7850  10.8384  11.1574  11.1881  11.7855  11.8459  12.2482  12.3008
    12.3232  12.4327  12.6178  12.6573

          k = 0.2500 0.7217-0.6263 (  5252 PWs)   bands (ev):

   -33.0481 -33.0481 -32.9178 -32.9178 -32.5219 -32.5219 -32.4331 -32.4331
   -13.9074 -13.8899 -13.8005 -13.7754 -13.4173 -13.4073 -13.3286 -13.3116
    -9.8589  -9.8337  -9.7734  -9.7262  -9.6486  -9.5731  -9.5533  -9.4877
    -9.2706  -9.2013  -9.1786  -9.1359  -9.0295  -8.9956  -8.9695  -8.9251
     4.9184   4.9653   5.1222   5.1826   5.8738   5.9336   6.1952   6.2437
     7.2072   7.2602   7.6555   7.7033   9.9695   9.9977  10.4790  10.5246
    10.8480  10.9234  11.1393  11.1766  11.5293  11.5857  11.8675  11.9373
    13.0565  13.0871  13.1015  13.1562

          k = 0.2500-1.0104 0.0000 (  5254 PWs)   bands (ev):

   -33.0369 -33.0369 -32.9056 -32.9056 -32.5094 -32.5094 -32.4207 -32.4207
   -13.9399 -13.9376 -13.8377 -13.8355 -13.4385 -13.4382 -13.3516 -13.3512
    -9.9156  -9.8838  -9.8560  -9.8204  -9.6537  -9.6371  -9.5848  -9.5413
    -9.3541  -9.3256  -9.2987  -9.2383  -9.0693  -9.0541  -8.9947  -8.9779
     5.0051   5.0862   5.1548   5.2248   5.7705   5.8157   6.1441   6.2003
     7.7106   7.7835   8.1496   8.2346   9.9511  10.0134  10.1648  10.1777
    10.6726  10.7281  11.0807  11.1140  12.0404  12.0607  12.2516  12.2982
    12.4168  12.4533  12.7413  12.7911

          k = 0.2500-1.0104 0.3132 (  5260 PWs)   bands (ev):

   -33.0365 -33.0365 -32.9051 -32.9051 -32.5099 -32.5099 -32.4211 -32.4211
   -13.9430 -13.9365 -13.8380 -13.8333 -13.4474 -13.4405 -13.3587 -13.3520
    -9.9537  -9.9114  -9.8715  -9.8331  -9.6604  -9.6382  -9.5523  -9.5258
    -9.3490  -9.3164  -9.2405  -9.1987  -9.0753  -9.0441  -9.0141  -8.9708
     5.0325   5.0714   5.1731   5.2036   5.9513   6.0171   6.5386   6.6004
     7.0844   7.1055   7.9256   7.9732   9.9940  10.0373  10.2730  10.3154
    10.7997  10.8500  10.9466  10.9636  11.9879  12.0740  12.2298  12.3067
[...]

   -33.0157 -33.0157 -32.9806 -32.9805 -32.5371 -32.5371 -32.5037 -32.5037
   -13.8425 -13.8378 -13.7176 -13.7126 -13.3808 -13.3729 -13.2733 -13.2651
    -9.8266  -9.8153  -9.5313  -9.5276  -9.5160  -9.5096  -9.3717  -9.3576
    -9.1823  -9.1801  -9.1079  -9.0960  -8.9711  -8.9705  -8.8266  -8.8258
     3.7871   3.7991   5.0431   5.0798   5.6733   5.7131   5.7213   5.7850
     7.4254   7.4871   8.4450   8.4508  10.0038  10.0134  10.1338  10.1519
    11.3611  11.3920  11.7918  11.7988  11.9371  11.9502  12.2120  12.2253
    12.2997  12.3004  12.9562  12.9696

          k = 0.2500 0.7217 0.0000 (  5270 PWs)   bands (ev):

   -32.9887 -32.9887 -32.9855 -32.9854 -32.5119 -32.5119 -32.5034 -32.5034
   -13.8375 -13.8354 -13.8204 -13.8177 -13.3517 -13.3474 -13.3395 -13.3346
    -9.7652  -9.7620  -9.7159  -9.7151  -9.5674  -9.5637  -9.5337  -9.5329
    -9.1924  -9.1889  -9.1520  -9.1477  -8.9719  -8.9697  -8.9550  -8.9534
     4.1029   4.1121   4.2019   4.2109   6.2162   6.2238   6.3314   6.3450
     8.5183   8.5249   8.6518   8.6601  10.0917  10.1011  10.1636  10.1764
    10.9403  10.9545  10.9661  10.9778  11.9764  12.0018  12.0221  12.0406
    12.4569  12.4612  12.5495  12.5545

          k = 0.2500 0.7217 0.3132 (  5250 PWs)   bands (ev):

   -32.9880 -32.9880 -32.9848 -32.9848 -32.5126 -32.5126 -32.5041 -32.5041
   -13.8351 -13.8326 -13.8151 -13.8122 -13.3606 -13.3557 -13.3472 -13.3417
    -9.7827  -9.7793  -9.7181  -9.7147  -9.5571  -9.5531  -9.5062  -9.5018
    -9.2045  -9.1974  -9.1403  -9.1361  -8.9867  -8.9829  -8.9545  -8.9524
     4.3747   4.4379   4.4608   4.5346   6.0468   6.1526   6.1650   6.2531
     7.9976   8.0348   8.0524   8.1154  10.0237  10.0459  10.4111  10.4466
    10.6555  10.6816  10.9793  11.0273  12.0840  12.1614  12.1909  12.2432
    12.4611  12.4876  12.5634  12.6364

          k = 0.2500 0.7217-0.6263 (  5252 PWs)   bands (ev):

   -32.9874 -32.9874 -32.9842 -32.9842 -32.5133 -32.5133 -32.5048 -32.5048
   -13.8318 -13.8294 -13.8101 -13.8071 -13.3678 -13.3637 -13.3554 -13.3509
    -9.7963  -9.7928  -9.7125  -9.7114  -9.5558  -9.5545  -9.4857  -9.4831
    -9.1951  -9.1912  -9.1156  -9.1141  -9.0089  -9.0044  -8.9645  -8.9630
     4.8820   4.8979   4.9525   4.9699   5.8097   5.8109   5.8738   5.8747
     7.5391   7.5582   7.5736   7.5932  10.1016  10.1231  10.1492  10.1708
    11.1170  11.1257  11.1879  11.1958  11.7272  11.7385  11.7904  11.8033
    13.1728  13.1764  13.2182  13.2217

          k = 0.2500-1.0104 0.0000 (  5254 PWs)   bands (ev):

   -32.9754 -32.9754 -32.9722 -32.9722 -32.5014 -32.5014 -32.4929 -32.4929
   -13.8740 -13.8739 -13.8499 -13.8499 -13.3936 -13.3934 -13.3832 -13.3831
    -9.8559  -9.8558  -9.7937  -9.7936  -9.5446  -9.5429  -9.5231  -9.5216
    -9.3058  -9.3051  -9.2793  -9.2785  -9.0268  -9.0253  -9.0186  -9.0172
     4.5643   4.5655   4.7230   4.7240   6.0588   6.0637   6.1163   6.1215
     8.3808   8.3914   8.4636   8.4734  10.0009  10.0014  10.0834  10.0842
    10.6596  10.6604  10.6958  10.6963  12.1189  12.1226  12.1792  12.1835
    12.5617  12.5652  12.6208  12.6246

          k = 0.2500-1.0104 0.3132 (  5260 PWs)   bands (ev):

   -32.9752 -32.9752 -32.9720 -32.9720 -32.5016 -32.5016 -32.4931 -32.4931
   -13.8775 -13.8771 -13.8492 -13.8489 -13.4017 -13.3987 -13.3873 -13.3843
    -9.8936  -9.8933  -9.8035  -9.8032  -9.5721  -9.5714  -9.5113  -9.5105
    -9.2920  -9.2912  -9.2123  -9.2101  -9.0350  -9.0330  -8.9987  -8.9966
     4.8017   4.8032   4.9370   4.9385   6.0552   6.0706   6.1251   6.1424
     7.7559   7.7728   7.8012   7.8168  10.1556  10.1606  10.2050  10.2078
    10.7785  10.7809  10.8027  10.8056  11.9639  11.9726  12.0937  12.1033
    12.6902  12.7077  12.7650  12.7806

          k = 0.2500-1.0104-0.6263 (  5260 PWs)   bands (ev):

   -32.9750 -32.9750 -32.9717 -32.9717 -32.5019 -32.5019 -32.4933 -32.4933
   -13.8795 -13.8794 -13.8493 -13.8492 -13.4025 -13.4022 -13.3933 -13.3930
    -9.9244  -9.9242  -9.8098  -9.8098  -9.6010  -9.6003  -9.5042  -9.5037
    -9.2661  -9.2657  -9.1533  -9.1514  -9.0418  -9.0405  -8.9868  -8.9867
     5.3498   5.3533   5.4793   5.4816   5.7365   5.7454   5.8411   5.8478
     7.1939   7.2012   7.2312   7.2397  10.0210  10.0282  10.0490  10.0547
    11.2915  11.2925  11.3658  11.3675  11.6422  11.6441  11.7179  11.7204
    13.3892  13.3924  13.4430  13.4459

          k = 0.2500-0.4330 0.0000 (  5251 PWs)   bands (ev):

   -33.0058 -33.0058 -32.9682 -32.9682 -32.5230 -32.5230 -32.4923 -32.4923
   -13.8941 -13.8528 -13.7878 -13.7791 -13.4082 -13.3994 -13.2839 -13.2732
    -9.8862  -9.7667  -9.7071  -9.6929  -9.5712  -9.5560  -9.4646  -9.4514
    -9.2757  -9.2638  -9.1384  -9.1362  -9.0221  -8.9852  -8.8948  -8.8719
     3.4114   3.4525   4.7433   5.0257   6.1771   6.2255   6.3992   6.5438
     8.2486   8.3065   8.6208   8.7832  10.2959  10.3430  10.3650  10.3960
    10.4190  10.5987  11.5597  11.5807  12.0113  12.0631  12.1884  12.2372
    12.9210  12.9415  12.9512  13.0407

          k = 0.2500-0.4330 0.3132 (  5259 PWs)   bands (ev):

   -33.0046 -33.0046 -32.9681 -32.9681 -32.5244 -32.5244 -32.4923 -32.4923
   -13.8995 -13.8532 -13.7760 -13.7657 -13.4111 -13.4040 -13.2977 -13.2861
    -9.9424  -9.7629  -9.6647  -9.6436  -9.6136  -9.5555  -9.4702  -9.4388
    -9.2792  -9.1914  -9.1271  -9.0847  -9.0728  -9.0334  -8.9062  -8.8843
     3.7454   3.7844   5.0397   5.2993   6.1835   6.1991   6.2457   6.3066
     7.5648   7.6173   8.3097   8.3897  10.2225  10.2486  10.2689  10.2922
    10.6411  10.7233  11.1994  11.2141  11.8415  11.9724  12.3784  12.4171
    12.7352  12.7763  12.9486  12.9668

          k = 0.2500-0.4330-0.6263 (  5266 PWs)   bands (ev):

   -33.0034 -33.0034 -32.9681 -32.9681 -32.5257 -32.5257 -32.4923 -32.4923
   -13.9049 -13.8536 -13.7632 -13.7519 -13.4134 -13.4093 -13.3117 -13.3002
    -9.9864  -9.7644  -9.6559  -9.6123  -9.5714  -9.5446  -9.4903  -9.4331
    -9.2797  -9.1364  -9.1293  -9.1131  -9.0843  -9.0372  -8.9197  -8.8990
     4.2436   4.2751   5.6069   5.7695   5.8230   5.8629   6.0984   6.1246
     6.7991   6.8185   8.1215   8.1339   9.9479   9.9630  10.1719  10.1818
    10.8981  10.9697  11.5520  11.5682  11.6581  11.8444  11.8785  11.9081
    12.7798  12.7995  13.2557  13.3094

          k =-0.5000-0.2887 0.0000 (  5254 PWs)   bands (ev):

   -33.0018 -33.0018 -32.9987 -32.9987 -32.5224 -32.5224 -32.5140 -32.5140
   -13.7992 -13.7992 -13.7928 -13.7928 -13.3048 -13.3048 -13.2917 -13.2917
    -9.7196  -9.7196  -9.7028  -9.7028  -9.4960  -9.4960  -9.4761  -9.4761
    -9.0690  -9.0690  -9.0594  -9.0594  -8.8978  -8.8978  -8.8911  -8.8911
     3.6267   3.6267   3.6529   3.6529   6.3473   6.3473   6.4804   6.4804
     8.5928   8.5928   8.7431   8.7431  10.2380  10.2380  10.3043  10.3043
    11.3788  11.3788  11.4375  11.4375  12.0999  12.0999  12.1294  12.1294
    12.7741  12.7741  12.7872  12.7872

          k =-0.5000-0.2887 0.3132 (  5256 PWs)   bands (ev):

   -33.0008 -33.0008 -32.9976 -32.9976 -32.5235 -32.5235 -32.5151 -32.5151
   -13.7917 -13.7880 -13.7846 -13.7812 -13.3191 -13.3144 -13.3055 -13.3007
    -9.6956  -9.6910  -9.6736  -9.6722  -9.4991  -9.4769  -9.4767  -9.4547
    -9.1205  -9.1054  -9.0773  -9.0715  -8.9227  -8.9149  -8.9022  -8.8939
     3.9226   3.9309   3.9751   4.0056   6.0970   6.2123   6.2516   6.3121
     8.2000   8.2287   8.2739   8.3573  10.0923  10.1054  10.2550  10.2795
    11.0931  11.1177  11.1354  11.1653  12.1814  12.2099  12.3777  12.3795
    12.7494  12.7577  12.9397  12.9420

          k =-0.5000-0.2887-0.6263 (  5256 PWs)   bands (ev):

   -32.9998 -32.9998 -32.9966 -32.9966 -32.5247 -32.5247 -32.5162 -32.5162
   -13.7800 -13.7800 -13.7724 -13.7724 -13.3292 -13.3292 -13.3150 -13.3150
    -9.6626  -9.6626  -9.6360  -9.6360  -9.4881  -9.4881  -9.4609  -9.4609
    -9.1245  -9.1245  -9.1121  -9.1121  -8.9305  -8.9305  -8.9216  -8.9216
     4.4286   4.4286   4.4537   4.4537   5.7796   5.7796   5.8133   5.8133
     7.9463   7.9463   7.9839   7.9839   9.9529   9.9529   9.9785   9.9785
    11.4445  11.4445  11.4725  11.4725  11.8429  11.8429  11.8775  11.8775
    12.9841  12.9841  13.0075  13.0075

          k =-0.5000 0.2887 0.0000 (  5253 PWs)   bands (ev):

   -33.0004 -33.0004 -32.9737 -32.9737 -32.5189 -32.5189 -32.4964 -32.4964
   -13.8769 -13.8429 -13.7994 -13.7931 -13.3915 -13.3818 -13.3032 -13.2925
    -9.8449  -9.7431  -9.7186  -9.7015  -9.5858  -9.5534  -9.4989  -9.4792
    -9.2709  -9.2316  -9.0811  -9.0682  -9.0634  -9.0586  -8.8938  -8.8926
     3.6273   3.6499   4.5708   4.7930   6.1596   6.2397   6.3440   6.4757
     8.3609   8.4615   8.5870   8.7356  10.1560  10.2416  10.2554  10.3040
    10.5533  10.6343  11.4157  11.4383  12.1239  12.1339  12.1449  12.1621
    12.4360  12.5105  12.7585  12.7662

          k =-0.5000 0.2887 0.3132 (  5250 PWs)   bands (ev):

   -32.9994 -32.9993 -32.9735 -32.9735 -32.5201 -32.5201 -32.4966 -32.4966
   -13.8802 -13.8418 -13.7918 -13.7811 -13.3960 -13.3870 -13.3177 -13.3012
    -9.8930  -9.7478  -9.6953  -9.6696  -9.6022  -9.5379  -9.5026  -9.4549
    -9.2661  -9.1829  -9.1070  -9.0793  -9.0718  -9.0361  -8.9224  -8.8995
     3.9252   3.9320   4.8633   5.0664   6.1241   6.2158   6.2353   6.2965
     7.7187   7.7755   8.2315   8.2675  10.1527  10.1780  10.2322  10.2606
    10.8224  10.9353  11.1238  11.1551  11.8747  11.9510  12.1980  12.2292
    12.5343  12.5947  12.9351  12.9384

          k =-0.5000 0.2887-0.6263 (  5272 PWs)   bands (ev):

   -32.9983 -32.9983 -32.9732 -32.9732 -32.5212 -32.5212 -32.4968 -32.4968
   -13.8834 -13.8408 -13.7795 -13.7724 -13.3999 -13.3929 -13.3275 -13.3159
    -9.9309  -9.7529  -9.6606  -9.6339  -9.6269  -9.5224  -9.4878  -9.4608
    -9.2573  -9.1256  -9.1171  -9.1135  -9.0940  -9.0125  -8.9295  -8.9273
     4.4372   4.4466   5.4021   5.5697   5.7862   5.8129   5.9153   6.0116
     7.0878   7.1088   7.9585   7.9838   9.9551   9.9587  10.1177  10.1539
    11.2364  11.3598  11.4459  11.4519  11.4554  11.6074  11.8665  11.8962
    12.9948  13.0113  13.1115  13.1555

          k =-0.5000-1.4434 0.0000 (  5252 PWs)   bands (ev):

   -32.9754 -32.9754 -32.9722 -32.9722 -32.5014 -32.5014 -32.4929 -32.4929
   -13.8771 -13.8771 -13.8431 -13.8431 -13.3924 -13.3924 -13.3800 -13.3800
    -9.8444  -9.8444  -9.7416  -9.7416  -9.5906  -9.5906  -9.5568  -9.5568
    -9.2696  -9.2696  -9.2290  -9.2290  -9.0804  -9.0804  -9.0614  -9.0614
     4.5673   4.5673   4.7901   4.7901   6.1521   6.1521   6.2382   6.2382
     8.3616   8.3616   8.4707   8.4707  10.1500  10.1500  10.2538  10.2538
    10.5526  10.5526  10.6300  10.6300  12.1642  12.1642  12.1792  12.1792
    12.4114  12.4114  12.5007  12.5007

          k =-0.5000-1.4434 0.3132 (  5244 PWs)   bands (ev):

   -32.9752 -32.9752 -32.9720 -32.9720 -32.5016 -32.5016 -32.4931 -32.4931
   -13.8804 -13.8801 -13.8419 -13.8416 -13.3986 -13.3954 -13.3868 -13.3836
    -9.8929  -9.8926  -9.7459  -9.7455  -9.6050  -9.6037  -9.5401  -9.5377
    -9.2661  -9.2659  -9.1848  -9.1818  -9.0819  -9.0735  -9.0388  -9.0340
     4.8622   4.8629   5.0653   5.0660   6.1043   6.1189   6.1967   6.2123
     7.7338   7.7389   7.7980   7.8023  10.1537  10.1541  10.1810  10.1814
    10.8138  10.8149  10.9260  10.9263  11.8933  11.8945  11.9668  11.9725
    12.5029  12.5309  12.5723  12.5935

          k =-0.5000-1.4434-0.6263 (  5288 PWs)   bands (ev):

   -32.9750 -32.9750 -32.9717 -32.9717 -32.5019 -32.5019 -32.4933 -32.4933
   -13.8832 -13.8832 -13.8404 -13.8404 -13.4012 -13.4012 -13.3908 -13.3908
    -9.9305  -9.9305  -9.7503  -9.7503  -9.6274  -9.6274  -9.5209  -9.5209
    -9.2591  -9.2591  -9.1166  -9.1166  -9.0976  -9.0976  -9.0139  -9.0139
     5.3950   5.3950   5.5606   5.5606   5.9210   5.9210   6.0226   6.0226
     7.0945   7.0945   7.1186   7.1186  10.1221  10.1221  10.1602  10.1602
    11.2341  11.2341  11.3651  11.3651  11.4596  11.4596  11.6123  11.6123
    13.1022  13.1022  13.1508  13.1508

          k = 0.0000-0.5773 0.3132 (  5250 PWs)   bands (ev):

   -32.9994 -32.9993 -32.9735 -32.9735 -32.5201 -32.5201 -32.4966 -32.4966
   -13.8802 -13.8418 -13.7918 -13.7811 -13.3960 -13.3870 -13.3177 -13.3012
    -9.8931  -9.7478  -9.6952  -9.6697  -9.6022  -9.5379  -9.5024  -9.4549
    -9.2661  -9.1829  -9.1070  -9.0792  -9.0720  -9.0361  -8.9224  -8.8996
     3.9248   3.9317   4.8630   5.0661   6.1245   6.2162   6.2371   6.2984
     7.7188   7.7759   8.2287   8.2643  10.1531  10.1785  10.2332  10.2612
    10.8220  10.9347  11.1248  11.1560  11.8755  11.9518  12.1967  12.2277
    12.5333  12.5939  12.9353  12.9387

          k =-0.2500-0.1443 0.3132 (  5261 PWs)   bands (ev):

   -33.0174 -33.0174 -32.9810 -32.9810 -32.5353 -32.5353 -32.5033 -32.5033
   -13.8468 -13.8361 -13.7373 -13.7338 -13.3783 -13.3623 -13.2534 -13.2470
    -9.8145  -9.8067  -9.6335  -9.6282  -9.5397  -9.4921  -9.3458  -9.3423
    -9.2440  -9.1873  -9.0039  -8.9821  -8.9756  -8.9511  -8.8239  -8.8161
     3.2758   3.2915   4.5372   4.5418   6.1432   6.1597   6.1687   6.2437
     7.8574   7.8963   8.4818   8.5448  10.2137  10.2610  10.6653  10.6687
    10.9287  10.9559  11.6585  11.6747  12.0152  12.1128  12.3378  12.3476
    12.6916  12.7014  12.7016  12.7103

          k =-0.2500-0.7217 0.3132 (  5250 PWs)   bands (ev):

   -32.9880 -32.9880 -32.9848 -32.9848 -32.5126 -32.5126 -32.5041 -32.5041
   -13.8351 -13.8326 -13.8151 -13.8122 -13.3606 -13.3557 -13.3472 -13.3418
    -9.7827  -9.7792  -9.7180  -9.7148  -9.5569  -9.5532  -9.5063  -9.5019
    -9.2046  -9.1974  -9.1403  -9.1361  -8.9867  -8.9830  -8.9545  -8.9524
     4.3743   4.4381   4.4604   4.5348   6.0468   6.1523   6.1671   6.2550
     7.9948   8.0336   8.0500   8.1150  10.0240  10.0463  10.4118  10.4471
    10.6564  10.6826  10.9796  11.0275  12.0826  12.1597  12.1930  12.2451
    12.4592  12.4862  12.5644  12.6373

          k =-0.2500 1.0104 0.3132 (  5260 PWs)   bands (ev):

   -32.9752 -32.9752 -32.9720 -32.9720 -32.5016 -32.5016 -32.4931 -32.4931
   -13.8770 -13.8765 -13.8496 -13.8492 -13.3998 -13.3955 -13.3907 -13.3863
    -9.8936  -9.8932  -9.8010  -9.8007  -9.5727  -9.5715  -9.5109  -9.5086
    -9.2957  -9.2953  -9.2156  -9.2149  -9.0310  -9.0288  -8.9988  -8.9971
     4.8843   4.8857   5.0375   5.0386   5.9200   5.9267   5.9862   5.9950
     7.8348   7.8362   7.8947   7.8962   9.8744   9.8751   9.9091   9.9101
    11.0594  11.0617  11.0972  11.0999  11.9447  11.9468  12.0760  12.0775
    12.6952  12.6968  12.7192  12.7220

          k =-0.2500 0.4330 0.3132 (  5259 PWs)   bands (ev):

   -33.0046 -33.0046 -32.9681 -32.9681 -32.5244 -32.5244 -32.4923 -32.4923
   -13.8995 -13.8532 -13.7761 -13.7657 -13.4111 -13.4040 -13.2977 -13.2860
    -9.9424  -9.7629  -9.6648  -9.6436  -9.6136  -9.5555  -9.4702  -9.4387
    -9.2792  -9.1914  -9.1271  -9.0847  -9.0727  -9.0334  -8.9062  -8.8843
     3.7455   3.7843   5.0400   5.2996   6.1832   6.1977   6.2447   6.3053
     7.5656   7.6183   8.3122   8.3924  10.2237  10.2482  10.2668  10.2916
    10.6411  10.7231  11.1983  11.2130  11.8412  11.9720  12.3788  12.4178
    12.7348  12.7758  12.9487  12.9669

          k = 0.5000-0.2887 0.3132 (  5250 PWs)   bands (ev):

   -32.9993 -32.9993 -32.9735 -32.9735 -32.5201 -32.5201 -32.4966 -32.4966
   -13.8803 -13.8418 -13.7876 -13.7849 -13.3964 -13.3867 -13.3125 -13.3067
    -9.8933  -9.7477  -9.6878  -9.6723  -9.6029  -9.5370  -9.4812  -9.4771
    -9.2664  -9.1837  -9.1204  -9.0784  -9.0695  -9.0362  -8.9193  -8.8970
     3.9724   4.0052   4.8667   5.0691   6.1036   6.1093   6.1970   6.2245
     7.7411   7.8000   8.2502   8.3343  10.0994  10.1121  10.1500  10.1746
    10.8250  10.9369  11.1099  11.1289  11.8785  11.9552  12.3944  12.4009
    12.5332  12.5927  12.7431  12.7522

     the Fermi energy is    11.1439 ev

!    total energy              =   -2245.73498142 Ry
     Harris-Foulkes estimate   =   -2245.73498107 Ry
     estimated scf accuracy    <          9.8E-09 Ry

     total all-electron energy =    -90250.078367 Ry

     The total energy is the sum of the following terms:

     one-electron contribution =     -36.28538465 Ry
     hartree contribution      =      40.80700303 Ry
     xc contribution           =    -256.11066254 Ry
     ewald contribution        =    -246.07769093 Ry
     one-center paw contrib.   =   -1748.06523788 Ry
     smearing contrib. (-TS)   =      -0.00300845 Ry

     convergence has been achieved in  11 iterations

     Forces acting on atoms (cartesian axes, Ry/au):

     atom    1 type  1   force =    -0.00008907   -0.00027324    0.00099964
     atom    2 type  1   force =    -0.00022524    0.00020346   -0.00063453
     atom    3 type  1   force =    -0.00023755    0.00021334   -0.00034026
     atom    4 type  1   force =     0.00073968    0.00016511    0.00019726
     atom    5 type  2   force =    -0.00009074   -0.00033435   -0.00018136
     atom    6 type  2   force =    -0.00033759    0.00010910   -0.00026154
     atom    7 type  2   force =     0.00030033    0.00010255   -0.00045047
     atom    8 type  2   force =    -0.00006666    0.00013994    0.00044997
     atom    9 type  2   force =     0.00017618   -0.00004242   -0.00023223
     atom   10 type  2   force =    -0.00016935   -0.00028349    0.00045352

     Total force =     0.001920     Total SCF correction =     0.000442
     SCF correction compared to forces is large: reduce conv_thr to get better values


     Computing stress (Cartesian axis) and pressure

     Message from routine stres:
     noncollinear stress + GGA not implemented

     Writing output data file 2309.save
 
     init_run     :      5.35s CPU      5.63s WALL (       2 calls)
     electrons    :   1576.01s CPU   1641.21s WALL (      37 calls)
     update_pot   :      9.17s CPU     13.52s WALL (      35 calls)
     forces       :     62.59s CPU     63.37s WALL (      37 calls)

     Called by init_run:
     wfcinit      :      4.53s CPU      4.73s WALL (       2 calls)
     potinit      :      0.32s CPU      0.34s WALL (       2 calls)

     Called by electrons:
     c_bands      :   1319.68s CPU   1366.80s WALL (     305 calls)
     sum_band     :    192.29s CPU    200.16s WALL (     305 calls)
     v_of_rho     :      1.11s CPU      1.13s WALL (     331 calls)
     newd         :     25.09s CPU     25.17s WALL (     331 calls)
     PAW_pot      :     47.62s CPU     48.19s WALL (     366 calls)
     mix_rho      :      1.60s CPU      1.62s WALL (     305 calls)

     Called by c_bands:
     init_us_2    :      8.34s CPU      8.67s WALL (   24624 calls)
     cegterg      :   1203.01s CPU   1248.59s WALL (   10980 calls)

     Called by sum_band:
     sum_band:bec :     57.32s CPU     57.53s WALL (   12240 calls)
     addusdens    :     10.62s CPU     10.70s WALL (     305 calls)

     Called by *egterg:
     h_psi        :    658.91s CPU    698.57s WALL (   45959 calls)
     s_psi        :     70.23s CPU     70.73s WALL (   45959 calls)
     g_psi        :      2.84s CPU      2.87s WALL (   34907 calls)
     cdiaghg      :    274.83s CPU    275.97s WALL (   44231 calls)

     Called by h_psi:
     h_psi:pot    :    648.69s CPU    688.20s WALL (   45959 calls)
     h_psi:calbec :     47.46s CPU     51.85s WALL (   45959 calls)
     vloc_psi     :    526.94s CPU    561.44s WALL (   45959 calls)
     add_vuspsi   :     73.87s CPU     74.52s WALL (   45959 calls)

     General routines
     calbec       :     71.13s CPU     77.71s WALL (   63527 calls)
     fft          :      0.97s CPU      1.05s WALL (    6544 calls)
     fftw         :    523.40s CPU    557.46s WALL ( 8404872 calls)
     davcio       :      0.00s CPU      0.02s WALL (      72 calls)
 
     Parallel routines
     fft_scatter  :    297.07s CPU    316.31s WALL ( 8411416 calls)
 
     PWSCF        : 27m52.28s CPU    30m41.50s WALL

 
   This run was terminated on:  17:38:52  13Oct2022            

=------------------------------------------------------------------------------=
   JOB DONE.
=------------------------------------------------------------------------------=
Removing 2309 from /home/shaharpit/tmp
