
     Program PWSCF v.6.1 (svn rev. 13369) starts on 13Oct2022 at 17: 4:26 

     This program is part of the open-source Quantum ESPRESSO suite
     for quantum simulation of materials; please cite
         "P. Giannozzi et al., J. Phys.:Condens. Matter 21 395502 (2009);
          URL http://www.quantum-espresso.org", 
     in publications or presentations arising from this work. More details at
     http://www.quantum-espresso.org/quote

     Parallel version (MPI), running on    16 processors
     R & G space division:  proc/nbgrp/npool/nimage =      16
     Reading input from ./hcp_100.in

     Current dimensions of program PWSCF are:
     Max number of different atomic species (ntypx) = 10
     Max number of k-points (npk) =  40000
     Max angular momentum in pseudopotentials (lmaxx) =  3
               file Gd.rel-pbe-spdn-kjpaw_psl.1.0.0.UPF: wavefunction(s)  5P 5P renormalized
               file H.pbe-kjpaw_psl.0.1.UPF: wavefunction(s)  1S renormalized

     Subspace diagonalization in iterative solution of the eigenvalue problem:
     a serial algorithm will be used

 
     Parallelization info
     --------------------
     sticks:   dense  smooth     PW     G-vecs:    dense   smooth      PW
     Min          80      80     24                 2632     2632     442
     Max          81      81     25                 2637     2637     447
     Sum        1287    1287    397                42147    42147    7103
 


     bravais-lattice index     =            0
     lattice parameter (alat)  =      13.6588  a.u.
     unit-cell volume          =     880.8636 (a.u.)^3
     number of atoms/cell      =           12
     number of atomic types    =            2
     number of electrons       =        52.00
     number of Kohn-Sham states=           62
     kinetic-energy cutoff     =      50.0000  Ry
     charge density cutoff     =     200.0000  Ry
     convergence threshold     =      1.0E-06
     mixing beta               =       0.7000
     number of iterations used =            8  plain     mixing
     Exchange-correlation      =  SLA  PW   PBX  PBC ( 1  4  3  4 0 0)
     nstep                     =          150

     Non magnetic calculation with spin-orbit


     celldm(1)=  13.658752  celldm(2)=   0.000000  celldm(3)=   0.000000
     celldm(4)=   0.000000  celldm(5)=   0.000000  celldm(6)=   0.000000

     crystal axes: (cart. coord. in units of alat)
               a(1) = (   1.000000   0.000000   0.000000 )  
               a(2) = (  -0.250003   0.433017   0.000000 )  
               a(3) = (   0.000000   0.000000   0.798309 )  

     reciprocal axes: (cart. coord. in units 2 pi/alat)
               b(1) = (  1.000000  0.577353  0.000000 )  
               b(2) = (  0.000000  2.309381  0.000000 )  
               b(3) = (  0.000000  0.000000  1.252647 )  


     PseudoPot. # 1 for Gd read from file:
     /home/shaharpit/MeamGdH/dft/qe_potentials/Gd.rel-pbe-spdn-kjpaw_psl.1.0.0.UPF
     MD5 check sum: cf50ec46d1536b4a0251694df1946a53
     Pseudo is Projector augmented-wave + core cor, Zval = 11.0
     Generated using "atomic" code by A. Dal Corso  v.6.2.2
     Shape of augmentation charge: PSQ
     Using radial grid of 1263 points, 10 beta functions with: 
                l(1) =   0
                l(2) =   0
                l(3) =   1
                l(4) =   1
                l(5) =   1
                l(6) =   1
                l(7) =   2
                l(8) =   2
                l(9) =   2
               l(10) =   2
     Q(r) pseudized with 0 coefficients 


     PseudoPot. # 2 for  H read from file:
     /home/shaharpit/MeamGdH/dft/qe_potentials/H.pbe-kjpaw_psl.0.1.UPF
     MD5 check sum: fbb168fef676c0aaadbafd73f5b1efa8
     Pseudo is Projector augmented-wave, Zval =  1.0
     Generated using "atomic" code by A. Dal Corso  v.5.0.2 svn rev. 9415
     Shape of augmentation charge: PSQ
     Using radial grid of  929 points,  2 beta functions with: 
                l(1) =   0
                l(2) =   0
     Q(r) pseudized with 0 coefficients 


     atomic species   valence    mass     pseudopotential
        Gd            11.00   157.25000     Gd( 1.00)
        H              1.00     1.00794      H( 1.00)

     No symmetry found



   Cartesian axes

     site n.     atom                  positions (alat units)
         1           Gd  tau(   1) = (   0.2499738   0.1443244   0.5987320  )
         2           Gd  tau(   2) = (   0.7499738   0.1443244   0.5987320  )
         3           Gd  tau(   3) = (   0.0000227   0.2886921   0.1995773  )
         4           Gd  tau(   4) = (   0.5000227   0.2886921   0.1995773  )
         5           H   tau(   5) = (   0.2603489   0.1351878   0.7734021  )
         6           H   tau(   6) = (   0.7141741   0.1153989   0.7679736  )
         7           H   tau(   7) = (   0.7240968   0.3952575   0.4070579  )
         8           H   tau(   8) = (   0.2676216   0.4208487   0.3987555  )
         9           H   tau(   9) = (  -0.0020534   0.4258284   0.2957736  )
        10           H   tau(  10) = (   0.7594248   0.0214343   0.2383752  )
        11           H   tau(  11) = (  -0.0314513   0.1687898   0.6524582  )
        12           H   tau(  12) = (   0.5425737   0.1587005   0.6760083  )

     number of k points=    36  gaussian smearing, width (Ry)=  0.0100
                       cart. coord. in units 2pi/alat
        k(    1) = (   0.0000000   0.0000000   0.0000000), wk =   0.0156250
        k(    2) = (   0.0000000   0.0000000   0.3131618), wk =   0.0312500
        k(    3) = (   0.0000000   0.0000000  -0.6263236), wk =   0.0156250
        k(    4) = (   0.0000000   0.5773452   0.0000000), wk =   0.0312500
        k(    5) = (   0.0000000   0.5773452   0.3131618), wk =   0.0312500
        k(    6) = (   0.0000000   0.5773452  -0.6263236), wk =   0.0312500
        k(    7) = (   0.0000000  -1.1546904   0.0000000), wk =   0.0156250
        k(    8) = (   0.0000000  -1.1546904   0.3131618), wk =   0.0312500
        k(    9) = (   0.0000000  -1.1546904  -0.6263236), wk =   0.0156250
        k(   10) = (   0.2500000   0.1443383   0.0000000), wk =   0.0312500
        k(   11) = (   0.2500000   0.1443383   0.3131618), wk =   0.0312500
        k(   12) = (   0.2500000   0.1443383  -0.6263236), wk =   0.0312500
        k(   13) = (   0.2500000   0.7216835   0.0000000), wk =   0.0312500
        k(   14) = (   0.2500000   0.7216835   0.3131618), wk =   0.0312500
        k(   15) = (   0.2500000   0.7216835  -0.6263236), wk =   0.0312500
        k(   16) = (   0.2500000  -1.0103521   0.0000000), wk =   0.0312500
        k(   17) = (   0.2500000  -1.0103521   0.3131618), wk =   0.0312500
        k(   18) = (   0.2500000  -1.0103521  -0.6263236), wk =   0.0312500
        k(   19) = (   0.2500000  -0.4330069   0.0000000), wk =   0.0312500
        k(   20) = (   0.2500000  -0.4330069   0.3131618), wk =   0.0312500
        k(   21) = (   0.2500000  -0.4330069  -0.6263236), wk =   0.0312500
        k(   22) = (  -0.5000000  -0.2886766   0.0000000), wk =   0.0156250
        k(   23) = (  -0.5000000  -0.2886766   0.3131618), wk =   0.0312500
        k(   24) = (  -0.5000000  -0.2886766  -0.6263236), wk =   0.0156250
        k(   25) = (  -0.5000000   0.2886686   0.0000000), wk =   0.0312500
        k(   26) = (  -0.5000000   0.2886686   0.3131618), wk =   0.0312500
        k(   27) = (  -0.5000000   0.2886686  -0.6263236), wk =   0.0312500
        k(   28) = (  -0.5000000  -1.4433670   0.0000000), wk =   0.0156250
        k(   29) = (  -0.5000000  -1.4433670   0.3131618), wk =   0.0312500
        k(   30) = (  -0.5000000  -1.4433670  -0.6263236), wk =   0.0156250
        k(   31) = (   0.0000000  -0.5773452   0.3131618), wk =   0.0312500
        k(   32) = (  -0.2500000  -0.1443383   0.3131618), wk =   0.0312500
        k(   33) = (  -0.2500000  -0.7216835   0.3131618), wk =   0.0312500
        k(   34) = (  -0.2500000   1.0103521   0.3131618), wk =   0.0312500
        k(   35) = (  -0.2500000   0.4330069   0.3131618), wk =   0.0312500
        k(   36) = (   0.5000000  -0.2886686   0.3131618), wk =   0.0312500

     Dense  grid:    42147 G-vectors     FFT dimensions: (  64,  32,  50)

     Estimated max dynamical RAM per process >      35.86MB

     Estimated total allocated dynamical RAM >     573.81MB

     Initial potential from superposition of free atoms

     starting charge   51.92374, renormalised to   52.00000
     Starting wfc are  120 randomized atomic wfcs
     Checking if some PAW data can be deallocated... 

     total cpu time spent up to now is        4.9 secs

     per-process dynamical memory:    94.2 Mb

     Self-consistent Calculation

     iteration #  1     ecut=    50.00 Ry     beta=0.70
     Davidson diagonalization with overlap
     ethr =  1.00E-02,  avg # of iterations =  2.0

     total cpu time spent up to now is       10.5 secs

     total energy              =   -2245.87546282 Ry
     Harris-Foulkes estimate   =   -2246.55188912 Ry
     estimated scf accuracy    <       1.12090561 Ry

     iteration #  2     ecut=    50.00 Ry     beta=0.70
     Davidson diagonalization with overlap
     ethr =  2.16E-03,  avg # of iterations =  3.8

     total cpu time spent up to now is       17.0 secs

     total energy              =   -2245.65743357 Ry
     Harris-Foulkes estimate   =   -2246.47622624 Ry
     estimated scf accuracy    <       1.73925685 Ry

     iteration #  3     ecut=    50.00 Ry     beta=0.70
     Davidson diagonalization with overlap
     ethr =  2.16E-03,  avg # of iterations =  3.9

     total cpu time spent up to now is       23.7 secs

     total energy              =   -2246.09150469 Ry
     Harris-Foulkes estimate   =   -2246.31354751 Ry
     estimated scf accuracy    <       0.70875094 Ry

     iteration #  4     ecut=    50.00 Ry     beta=0.70
     Davidson diagonalization with overlap
     ethr =  1.36E-03,  avg # of iterations =  2.6

     total cpu time spent up to now is       28.7 secs

     total energy              =   -2246.17444836 Ry
     Harris-Foulkes estimate   =   -2246.18473294 Ry
     estimated scf accuracy    <       0.02666570 Ry

     iteration #  5     ecut=    50.00 Ry     beta=0.70
     Davidson diagonalization with overlap
     ethr =  5.13E-05,  avg # of iterations =  5.2

     total cpu time spent up to now is       36.1 secs

     total energy              =   -2246.18053994 Ry
     Harris-Foulkes estimate   =   -2246.18342199 Ry
     estimated scf accuracy    <       0.00751813 Ry

     iteration #  6     ecut=    50.00 Ry     beta=0.70
     Davidson diagonalization with overlap
     ethr =  1.45E-05,  avg # of iterations =  4.2

     total cpu time spent up to now is       42.6 secs

     total energy              =   -2246.18173807 Ry
     Harris-Foulkes estimate   =   -2246.18257051 Ry
     estimated scf accuracy    <       0.00242250 Ry

     iteration #  7     ecut=    50.00 Ry     beta=0.70
     Davidson diagonalization with overlap
     ethr =  4.66E-06,  avg # of iterations =  3.2

     total cpu time spent up to now is       48.4 secs

     total energy              =   -2246.18210348 Ry
     Harris-Foulkes estimate   =   -2246.18230707 Ry
     estimated scf accuracy    <       0.00052697 Ry

     iteration #  8     ecut=    50.00 Ry     beta=0.70
     Davidson diagonalization with overlap
     ethr =  1.01E-06,  avg # of iterations =  3.1

     total cpu time spent up to now is       54.0 secs

     total energy              =   -2246.18219279 Ry
     Harris-Foulkes estimate   =   -2246.18224877 Ry
     estimated scf accuracy    <       0.00013478 Ry

     iteration #  9     ecut=    50.00 Ry     beta=0.70
     Davidson diagonalization with overlap
     ethr =  2.59E-07,  avg # of iterations =  2.9

     total cpu time spent up to now is       59.5 secs

     total energy              =   -2246.18221852 Ry
     Harris-Foulkes estimate   =   -2246.18223009 Ry
     estimated scf accuracy    <       0.00003039 Ry

     iteration # 10     ecut=    50.00 Ry     beta=0.70
     Davidson diagonalization with overlap
     ethr =  5.84E-08,  avg # of iterations =  2.2

     total cpu time spent up to now is       64.6 secs

     End of self-consistent calculation

          k = 0.0000 0.0000 0.0000 (  5289 PWs)   bands (ev):

   -33.3399 -33.3399 -33.2140 -33.2140 -32.6257 -32.6257 -32.0194 -32.0194
   -14.4875 -14.4875 -14.3059 -14.3059 -13.7844 -13.7844 -13.3400 -13.3400
   -10.7288 -10.7288 -10.4968 -10.4968 -10.0732 -10.0732  -9.7803  -9.7803
    -9.5635  -9.5635  -9.2263  -9.2263  -8.8983  -8.8983  -8.4089  -8.4089
     3.5098   3.5098   5.6183   5.6183   6.0826   6.0826   6.3499   6.3499
     7.9035   7.9035   8.1262   8.1262   8.7752   8.7752   9.2213   9.2213
     9.7943   9.7943  11.1012  11.1012  11.7207  11.7207  11.8731  11.8731
    12.2834  12.2834  12.4334  12.4334  13.0661  13.0661

          k = 0.0000 0.0000 0.3132 (  5279 PWs)   bands (ev):

   -33.3389 -33.3389 -33.2136 -33.2136 -32.6267 -32.6267 -32.0199 -32.0199
   -14.4896 -14.4788 -14.2914 -14.2896 -13.8005 -13.7919 -13.3516 -13.3430
   -10.7462 -10.7168 -10.4795 -10.4701 -10.0790 -10.0480  -9.7769  -9.7498
    -9.5897  -9.5424  -9.2909  -9.2721  -8.9177  -8.8837  -8.4134  -8.4106
     3.8760   3.9166   5.5114   5.5640   5.7670   5.8056   6.7066   6.8405
     7.5056   7.5685   7.9464   8.0555   8.6094   8.6604   9.1567   9.2907
     9.9126   9.9720  10.8310  10.8657  11.7088  11.7404  11.9352  11.9574
    12.0887  12.1243  12.2211  12.3098  13.0824  13.1198

          k = 0.0000 0.0000-0.6263 (  5252 PWs)   bands (ev):

   -33.3380 -33.3380 -33.2132 -33.2132 -32.6278 -32.6278 -32.0205 -32.0205
   -14.4815 -14.4815 -14.2735 -14.2735 -13.8088 -13.8088 -13.3547 -13.3547
   -10.7360 -10.7360 -10.4484 -10.4484 -10.0559 -10.0559  -9.7423  -9.7423
    -9.5658  -9.5658  -9.3474  -9.3474  -8.8995  -8.8995  -8.4149  -8.4149
     4.5280   4.5280   5.2384   5.2384   5.7081   5.7081   6.6646   6.6646
     7.4793   7.4793   8.0422   8.0422   8.2500   8.2500   9.2364   9.2364
    10.1732  10.1732  10.6727  10.6727  11.6450  11.6450  11.9232  11.9232
    12.1489  12.1489  12.3367  12.3367  12.8439  12.8439

          k = 0.0000 0.5773 0.0000 (  5253 PWs)   bands (ev):

   -33.3232 -33.3230 -33.2044 -33.2043 -32.6148 -32.6146 -32.0090 -32.0088
   -14.5061 -14.4922 -14.3871 -14.3683 -13.8112 -13.8025 -13.3716 -13.3622
   -10.7572 -10.7255 -10.6166 -10.5816 -10.1066 -10.0563  -9.8305  -9.8106
    -9.6155  -9.5961  -9.3291  -9.3106  -8.9727  -8.9520  -8.6321  -8.6201
     4.4759   4.5559   5.8432   5.9149   6.0020   6.0876   6.7142   6.7765
     7.3564   7.5356   7.8314   8.0208   8.4185   8.5043   8.9253   9.1161
    10.4530  10.5317  11.1742  11.2625  11.3187  11.3422  11.5192  11.5685
    12.2559  12.3536  12.5436  12.6366  12.7809  12.8976

          k = 0.0000 0.5773 0.3132 (  5250 PWs)   bands (ev):

   -33.3226 -33.3225 -33.2041 -33.2039 -32.6155 -32.6153 -32.0094 -32.0092
   -14.5034 -14.4831 -14.3831 -14.3644 -13.8238 -13.8105 -13.3775 -13.3686
   -10.7659 -10.7156 -10.6215 -10.5590 -10.0916 -10.0654  -9.8223  -9.8091
    -9.6302  -9.5914  -9.3640  -9.3164  -8.9686  -8.9332  -8.6252  -8.6167
     4.8324   4.8950   5.7773   5.8401   5.9284   6.0230   6.7929   6.8725
     7.3105   7.4080   7.8332   7.9305   8.0548   8.1168   8.9394   8.9618
    10.4600  10.5707  10.7696  10.8030  11.2798  11.3357  11.8370  11.8698
    12.2189  12.3128  12.5655  12.5846  13.2227  13.2810

          k = 0.0000 0.5773-0.6263 (  5272 PWs)   bands (ev):

   -33.3222 -33.3221 -33.2037 -33.2036 -32.6160 -32.6158 -32.0097 -32.0095
   -14.5048 -14.4840 -14.3841 -14.3644 -13.8248 -13.8150 -13.3787 -13.3710
   -10.7832 -10.7095 -10.6132 -10.5638 -10.0700 -10.0494  -9.7914  -9.7636
    -9.6366  -9.5880  -9.4107  -9.3799  -8.9701  -8.9235  -8.6154  -8.6054
     4.8421   4.9211   5.8639   5.9517   6.0560   6.0652   6.8504   6.8853
     7.2956   7.3945   7.8050   7.8808   7.9806   8.0196   8.7994   8.9468
    10.4600  10.5565  10.7899  10.8595  11.1964  11.2328  11.5080  11.5455
    12.4049  12.4987  12.7182  12.7396  13.0131  13.0335

          k = 0.0000-1.1547 0.0000 (  5284 PWs)   bands (ev):

   -33.3092 -33.3092 -33.1915 -33.1915 -32.6041 -32.6041 -31.9980 -31.9980
   -14.5529 -14.5529 -14.4275 -14.4275 -13.8324 -13.8324 -13.3930 -13.3930
   -10.7986 -10.7986 -10.6593 -10.6593 -10.1390 -10.1390  -9.8332  -9.8332
    -9.6103  -9.6103  -9.4169  -9.4169  -9.0024  -9.0024  -8.7672  -8.7672
     5.1341   5.1341   5.9857   5.9857   6.2536   6.2536   6.4476   6.4476
     6.9826   6.9826   7.7556   7.7556   8.2554   8.2554   8.9748   8.9748
    10.0963  10.0963  11.2670  11.2670  11.6652  11.6652  11.9163  11.9163
    12.0563  12.0563  12.3021  12.3021  14.0204  14.0204

          k = 0.0000-1.1547 0.3132 (  5252 PWs)   bands (ev):

   -33.3091 -33.3091 -33.1914 -33.1914 -32.6042 -32.6042 -31.9981 -31.9981
   -14.5599 -14.5574 -14.4327 -14.4264 -13.8382 -13.8317 -13.3978 -13.3933
   -10.8057 -10.7898 -10.6882 -10.6526 -10.1444 -10.1140  -9.8327  -9.7983
    -9.6262  -9.5997  -9.4542  -9.3918  -9.0042  -8.9767  -8.7645  -8.7408
     5.0136   5.0157   5.7881   5.8468   6.1720   6.2522   6.6413   6.7661
     7.1093   7.1956   7.5668   7.6885   8.2276   8.3068   9.0362   9.1248
    10.0292  10.1110  11.0009  11.0219  11.7170  11.7916  11.9923  12.1211
    12.1758  12.2212  12.4136  12.4507  13.9739  14.0721

          k = 0.0000-1.1547-0.6263 (  5272 PWs)   bands (ev):

   -33.3090 -33.3090 -33.1912 -33.1912 -32.6044 -32.6044 -31.9981 -31.9981
   -14.5643 -14.5643 -14.4317 -14.4317 -13.8373 -13.8373 -13.3982 -13.3982
   -10.7966 -10.7966 -10.6827 -10.6827 -10.1186 -10.1186  -9.7994  -9.7994
    -9.6158  -9.6158  -9.4279  -9.4279  -8.9776  -8.9776  -8.7384  -8.7384
     4.9051   4.9051   5.7421   5.7421   6.4013   6.4013   6.7250   6.7250
     6.8515   6.8515   7.8146   7.8146   8.4371   8.4371   9.0187   9.0187
    10.2245  10.2245  10.7040  10.7040  11.8203  11.8203  12.2966  12.2966
    12.4199  12.4199  12.9475  12.9475  13.5466  13.5466

          k = 0.2500 0.1443 0.0000 (  5279 PWs)   bands (ev):

   -33.3374 -33.3374 -33.2166 -33.2165 -32.6252 -32.6252 -32.0200 -32.0200
   -14.4778 -14.4729 -14.3160 -14.3114 -13.7786 -13.7776 -13.3450 -13.3434
   -10.7145 -10.6947 -10.5231 -10.4991 -10.0666 -10.0335  -9.8233  -9.7902
    -9.5334  -9.5169  -9.2801  -9.2560  -8.8864  -8.8738  -8.4783  -8.4626
     3.8152   3.8862   5.5391   5.6855   5.9050   5.9563   6.6495   6.7382
     7.7089   7.7705   7.8393   7.9284   8.7066   8.7486   9.0634   9.1014
    10.0788  10.1153  11.0985  11.1826  11.6772  11.7133  11.8479  11.8740
    12.1307  12.1632  12.4356  12.5144  12.7967  12.8633

          k = 0.2500 0.1443 0.3132 (  5261 PWs)   bands (ev):

   -33.3366 -33.3365 -33.2161 -33.2161 -32.6262 -32.6262 -32.0206 -32.0206
   -14.4730 -14.4670 -14.3043 -14.2981 -13.7940 -13.7856 -13.3556 -13.3464
   -10.7092 -10.6952 -10.5088 -10.4791 -10.0517 -10.0165  -9.7967  -9.7805
    -9.5695  -9.5287  -9.3333  -9.2992  -8.8876  -8.8586  -8.4835  -8.4655
     4.1876   4.2541   5.7026   5.7434   5.9320   6.0201   6.3158   6.3882
     7.5260   7.5588   7.8874   7.9740   8.5211   8.5997   9.0319   9.1401
    10.0556  10.0914  10.8513  10.9324  11.7038  11.7754  11.8684  11.9543
    11.9982  12.0648  12.2444  12.3050  12.8770  12.9069

          k = 0.2500 0.1443-0.6263 (  5254 PWs)   bands (ev):

   -33.3357 -33.3357 -33.2156 -33.2156 -32.6272 -32.6272 -32.0212 -32.0212
   -14.4656 -14.4602 -14.2933 -14.2874 -13.8030 -13.8012 -13.3582 -13.3562
   -10.7090 -10.6881 -10.4883 -10.4662 -10.0376 -10.0264  -9.7598  -9.7492
    -9.5598  -9.5379  -9.4017  -9.3753  -8.8799  -8.8666  -8.4816  -8.4653
     4.7938   4.8401   5.4031   5.4571   5.7148   5.7298   6.5963   6.7275
     7.3683   7.4550   7.8939   8.0348   8.0929   8.1735   9.0413   9.0746
    10.2754  10.2910  10.7485  10.7742  11.5762  11.6118  11.8057  11.9208
    12.0557  12.1181  12.2926  12.3485  12.5536  12.5839

          k = 0.2500 0.7217 0.0000 (  5270 PWs)   bands (ev):

   -33.3221 -33.3219 -33.2055 -33.2054 -32.6144 -32.6143 -32.0095 -32.0093
   -14.5110 -14.4969 -14.3853 -14.3631 -13.8058 -13.7977 -13.3747 -13.3656
   -10.7401 -10.7359 -10.5981 -10.5872 -10.0994 -10.0551  -9.8507  -9.8235
    -9.5598  -9.5254  -9.3921  -9.3551  -8.9439  -8.9336  -8.6829  -8.6532
     5.0218   5.0809   5.3419   5.4858   6.0914   6.1934   6.8633   6.9147
     7.2004   7.3488   7.7295   7.7839   8.2936   8.3755   8.9033   8.9231
    10.6734  10.7063  10.9599  11.0752  11.5199  11.5784  11.6539  11.6770
    12.0256  12.0770  12.3283  12.4331  12.6616  12.8100

          k = 0.2500 0.7217 0.3132 (  5250 PWs)   bands (ev):

   -33.3216 -33.3215 -33.2051 -33.2050 -32.6151 -32.6149 -32.0098 -32.0096
   -14.5059 -14.4885 -14.3842 -14.3591 -13.8188 -13.8058 -13.3803 -13.3712
   -10.7383 -10.7167 -10.6176 -10.5694 -10.0853 -10.0739  -9.8357  -9.8072
    -9.5778  -9.5398  -9.4117  -9.3655  -8.9373  -8.9170  -8.6654  -8.6567
     5.2376   5.2852   5.4842   5.5491   5.9845   6.0919   6.9145   7.0504
     7.2046   7.2876   7.6158   7.6990   8.0743   8.1643   8.6969   8.8013
    10.6384  10.6673  10.8944  10.9644  11.4948  11.5220  11.6634  11.7139
    12.1152  12.1455  12.2876  12.3174  13.1897  13.2529

          k = 0.2500 0.7217-0.6263 (  5252 PWs)   bands (ev):

   -33.3213 -33.3211 -33.2047 -33.2046 -32.6156 -32.6154 -32.0101 -32.0099
   -14.5086 -14.4915 -14.3832 -14.3575 -13.8199 -13.8105 -13.3814 -13.3742
   -10.7366 -10.7111 -10.6330 -10.5698 -10.0585 -10.0511  -9.7932  -9.7600
    -9.6043  -9.5625  -9.4471  -9.4234  -8.9328  -8.9028  -8.6639  -8.6410
     5.1510   5.2309   5.5625   5.6747   6.2626   6.3435   6.7151   6.8438
     7.1105   7.2091   7.6903   7.8118   8.1455   8.2729   8.6599   8.6932
    10.5056  10.5319  10.9943  11.0207  11.2668  11.2922  11.5217  11.5843
    12.1397  12.1922  12.6033  12.7001  12.9279  13.0037

          k = 0.2500-1.0104 0.0000 (  5254 PWs)   bands (ev):

   -33.3092 -33.3092 -33.1916 -33.1916 -32.6041 -32.6041 -31.9980 -31.9980
   -14.5493 -14.5408 -14.4366 -14.4279 -13.8306 -13.8297 -13.3919 -13.3909
   -10.7978 -10.7801 -10.6796 -10.6588 -10.1253 -10.1108  -9.8313  -9.8254
    -9.5988  -9.5870  -9.4493  -9.4296  -9.0397  -9.0239  -8.8003  -8.7845
     5.4010   5.4287   5.9939   6.0655   6.2002   6.2803   6.6032   6.7352
     6.9504   7.0382   7.6364   7.6982   8.2280   8.2847   8.7256   8.8527
    10.1990  10.2881  11.0692  11.1643  11.6111  11.6469  11.8327  11.9367
    12.0981  12.1606  12.3081  12.3575  13.4110  13.5021

          k = 0.2500-1.0104 0.3132 (  5260 PWs)   bands (ev):

   -33.3091 -33.3091 -33.1914 -33.1914 -32.6042 -32.6042 -31.9981 -31.9981
   -14.5571 -14.5450 -14.4394 -14.4280 -13.8351 -13.8304 -13.3966 -13.3912
   -10.8010 -10.7809 -10.6921 -10.6610 -10.1285 -10.0958  -9.8255  -9.7890
    -9.6132  -9.5731  -9.4723  -9.4361  -9.0317  -9.0017  -8.7862  -8.7654
     5.2062   5.2545   5.8113   5.8813   6.2880   6.3723   6.8881   7.0267
     7.1971   7.2830   7.4311   7.6269   8.2242   8.3216   8.7105   8.8137
    10.3026  10.3600  10.6862  10.7209  11.4053  11.4474  11.8833  11.9152
    12.1863  12.2662  12.5830  12.6079  13.4814  13.5365

          k = 0.2500-1.0104-0.6263 (  5260 PWs)   bands (ev):

   -33.3090 -33.3090 -33.1912 -33.1912 -32.6044 -32.6044 -31.9982 -31.9982
   -14.5612 -14.5490 -14.4439 -14.4306 -13.8357 -13.8342 -13.3975 -13.3961
   -10.8052 -10.7767 -10.7057 -10.6678 -10.1081 -10.0928  -9.8019  -9.7785
    -9.6208  -9.5852  -9.4731  -9.4456  -9.0094  -8.9970  -8.7618  -8.7562
     5.1647   5.2255   5.8584   5.8872   6.4430   6.4836   6.7400   6.7645
     6.9271   6.9899   7.8523   7.8880   8.2743   8.4033   8.7651   8.8427
    10.3083  10.3308  10.4594  10.4749  11.4170  11.4480  11.8526  11.8816
    12.2511  12.2741  12.8333  12.8902  13.2052  13.2520

          k = 0.2500-0.4330 0.0000 (  5251 PWs)   bands (ev):

   -33.3247 -33.3245 -33.2028 -33.2027 -32.6150 -32.6148 -32.0088 -32.0086
   -14.5232 -14.5028 -14.3729 -14.3589 -13.8106 -13.8008 -13.3687 -13.3608
   -10.7790 -10.7435 -10.5895 -10.5713 -10.0840 -10.0417  -9.8331  -9.8046
    -9.6004  -9.5955  -9.3401  -9.3144  -9.0258  -8.9921  -8.6138  -8.5988
     4.3551   4.4504   5.9405   5.9990   6.2468   6.2935   6.7121   6.8946
     7.3579   7.5113   7.7553   7.9251   8.5011   8.5560   8.8077   8.9487
    10.3224  10.3840  11.1987  11.2977  11.3826  11.4157  11.4885  11.5695
    12.3442  12.4032  12.6901  12.7513  12.9826  13.0125

          k = 0.2500-0.4330 0.3132 (  5259 PWs)   bands (ev):

   -33.3242 -33.3240 -33.2026 -33.2025 -32.6155 -32.6153 -32.0091 -32.0089
   -14.5292 -14.5029 -14.3706 -14.3563 -13.8126 -13.8049 -13.3699 -13.3643
   -10.8044 -10.7342 -10.5772 -10.5717 -10.0637 -10.0310  -9.7983  -9.7537
    -9.6194  -9.5922  -9.3982  -9.3687  -9.0161  -8.9820  -8.6084  -8.5892
     4.5109   4.6179   5.9894   6.0418   6.2836   6.3236   6.7759   6.8789
     7.0743   7.1260   7.9031   7.9838   8.5321   8.6666   8.9345   9.0395
    10.1061  10.1892  10.7543  10.8375  11.2904  11.3299  11.4894  11.5422
    12.4026  12.4555  12.4779  12.5326  12.8439  12.9545

          k = 0.2500-0.4330-0.6263 (  5266 PWs)   bands (ev):

   -33.3236 -33.3235 -33.2023 -33.2022 -32.6162 -32.6160 -32.0095 -32.0093
   -14.5302 -14.4990 -14.3606 -14.3469 -13.8250 -13.8144 -13.3769 -13.3706
   -10.8160 -10.7294 -10.5734 -10.5435 -10.0628 -10.0411  -9.7931  -9.7535
    -9.6150  -9.5689  -9.4274  -9.4053  -9.0148  -8.9619  -8.6001  -8.5865
     4.9955   5.0784   5.8266   5.9159   6.1568   6.1995   6.6683   6.7329
     7.2574   7.3440   7.7840   7.9126   8.0522   8.1740   8.8754   9.0061
    10.3177  10.3760  10.7232  10.7727  10.9425  11.0155  11.5821  11.6150
    12.3451  12.3984  12.6032  12.6495  12.9515  12.9790

          k =-0.5000-0.2887 0.0000 (  5254 PWs)   bands (ev):

   -33.3348 -33.3348 -33.2192 -33.2192 -32.6246 -32.6246 -32.0207 -32.0207
   -14.4617 -14.4617 -14.3230 -14.3230 -13.7718 -13.7718 -13.3485 -13.3485
   -10.6769 -10.6769 -10.5285 -10.5285 -10.0221 -10.0221  -9.8406  -9.8406
    -9.4551  -9.4551  -9.3404  -9.3404  -8.8517  -8.8517  -8.5407  -8.5407
     4.5012   4.5012   4.9454   4.9454   6.3840   6.3840   7.1327   7.1327
     7.3111   7.3111   7.4952   7.4952   8.6752   8.6752   9.0702   9.0702
    10.5319  10.5319  10.8538  10.8538  11.7007  11.7007  11.8684  11.8684
    12.2104  12.2104  12.4610  12.4610  12.7088  12.7089

          k =-0.5000-0.2887 0.3132 (  5256 PWs)   bands (ev):

   -33.3341 -33.3341 -33.2187 -33.2187 -32.6256 -32.6256 -32.0213 -32.0213
   -14.4551 -14.4467 -14.3189 -14.3161 -13.7875 -13.7791 -13.3591 -13.3491
   -10.6703 -10.6515 -10.5351 -10.5159 -10.0295  -9.9966  -9.8237  -9.7965
    -9.4966  -9.4724  -9.4107  -9.3695  -8.8505  -8.8372  -8.5497  -8.5327
     4.7488   4.7886   5.1400   5.1909   6.2633   6.3694   6.7533   6.8716
     7.3147   7.3858   7.6024   7.6471   8.2092   8.2851   9.0559   9.1245
    10.4200  10.4672  10.8601  10.9163  11.3877  11.4937  11.9582  12.0024
    12.1006  12.1675  12.3794  12.4427  12.6850  12.7352

          k =-0.5000-0.2887-0.6263 (  5256 PWs)   bands (ev):

   -33.3333 -33.3333 -33.2181 -33.2181 -32.6266 -32.6266 -32.0219 -32.0219
   -14.4397 -14.4397 -14.3119 -14.3119 -13.7952 -13.7952 -13.3598 -13.3598
   -10.6454 -10.6454 -10.5220 -10.5220 -10.0049 -10.0049  -9.7705  -9.7705
    -9.5114  -9.5114  -9.4493  -9.4493  -8.8371  -8.8371  -8.5418  -8.5418
     5.2430   5.2430   5.4286   5.4286   5.9456   5.9456   6.6350   6.6350
     7.3393   7.3393   7.5937   7.5937   8.0623   8.0623   8.9800   8.9800
    10.4701  10.4701  10.8174  10.8174  11.5943  11.5943  11.7438  11.7438
    11.9296  11.9296  12.2112  12.2112  12.6428  12.6429

          k =-0.5000 0.2887 0.0000 (  5253 PWs)   bands (ev):

   -33.3237 -33.3235 -33.2039 -33.2038 -32.6146 -32.6145 -32.0093 -32.0091
   -14.5262 -14.5084 -14.3705 -14.3552 -13.8050 -13.7962 -13.3717 -13.3643
   -10.7701 -10.7426 -10.5815 -10.5699 -10.0779 -10.0380  -9.8540  -9.8176
    -9.5385  -9.5197  -9.4000  -9.3695  -9.0117  -8.9808  -8.6470  -8.6314
     4.6394   4.7687   5.8439   5.9274   6.2983   6.4044   6.8473   7.0055
     7.1292   7.2489   7.5501   7.6399   8.3521   8.4546   8.7626   8.8273
    10.4406  10.5247  10.9915  11.0564  11.6462  11.6902  11.8206  11.8594
    12.1032  12.1843  12.4962  12.5351  12.6969  12.7790

          k =-0.5000 0.2887 0.3132 (  5250 PWs)   bands (ev):

   -33.3231 -33.3229 -33.2036 -33.2035 -32.6153 -32.6151 -32.0096 -32.0094
   -14.5259 -14.5038 -14.3636 -14.3462 -13.8181 -13.8053 -13.3787 -13.3693
   -10.7753 -10.7295 -10.5822 -10.5523 -10.0809 -10.0553  -9.8377  -9.8041
    -9.5419  -9.5061  -9.4278  -9.4057  -8.9987  -8.9692  -8.6395  -8.6247
     4.9030   5.0130   5.8497   5.9263   6.2469   6.3330   6.9802   7.0653
     7.1397   7.2405   7.4882   7.5506   8.0819   8.1765   8.5957   8.6440
    10.7802  10.8052  10.8956  10.9756  11.0757  11.1635  11.8332  11.8819
    12.2168  12.2772  12.3224  12.3674  12.8579  12.8935

          k =-0.5000 0.2887-0.6263 (  5272 PWs)   bands (ev):

   -33.3227 -33.3225 -33.2033 -33.2032 -32.6158 -32.6156 -32.0099 -32.0097
   -14.5324 -14.5065 -14.3581 -14.3434 -13.8201 -13.8100 -13.3794 -13.3738
   -10.7851 -10.7278 -10.5796 -10.5502 -10.0519 -10.0429  -9.7953  -9.7487
    -9.5584  -9.5313  -9.4840  -9.4651  -8.9871  -8.9472  -8.6404  -8.6150
     5.2913   5.3759   5.7023   5.7645   6.2123   6.3227   6.5829   6.6646
     7.2552   7.2900   7.6035   7.6873   8.1678   8.2573   8.7713   8.8026
    10.2851  10.2993  10.8541  10.9095  11.1957  11.2780  11.5719  11.6680
    11.9706  12.0622  12.5851  12.6343  12.8494  12.8581

          k =-0.5000-1.4434 0.0000 (  5252 PWs)   bands (ev):

   -33.3092 -33.3092 -33.1916 -33.1916 -32.6040 -32.6040 -31.9981 -31.9981
   -14.5368 -14.5368 -14.4375 -14.4375 -13.8279 -13.8279 -13.3898 -13.3898
   -10.7789 -10.7789 -10.6795 -10.6795 -10.0957 -10.0957  -9.8247  -9.8247
    -9.5663  -9.5663  -9.4699  -9.4699  -9.0629  -9.0629  -8.8174  -8.8174
     5.7585   5.7585   6.0443   6.0443   6.3319   6.3319   6.8237   6.8237
     7.1787   7.1787   7.3104   7.3104   8.2950   8.2950   8.5616   8.5616
    10.4911  10.4911  10.9051  10.9051  11.6373  11.6373  11.9453  11.9453
    12.1320  12.1320  12.3043  12.3043  13.1314  13.1315

          k =-0.5000-1.4434 0.3132 (  5244 PWs)   bands (ev):

   -33.3091 -33.3091 -33.1914 -33.1914 -32.6042 -32.6042 -31.9981 -31.9981
   -14.5430 -14.5393 -14.4419 -14.4386 -13.8328 -13.8277 -13.3946 -13.3905
   -10.7928 -10.7753 -10.6983 -10.6682 -10.1008 -10.0758  -9.8216  -9.7807
    -9.5906  -9.5630  -9.4983  -9.4718  -9.0602  -9.0278  -8.8110  -8.7878
     5.6590   5.7073   5.9768   6.0204   6.3947   6.4602   6.7786   6.8610
     6.9844   7.1007   7.5647   7.6672   8.1399   8.2618   8.6715   8.7762
    10.1894  10.2686  10.8997  10.9388  11.1545  11.2434  11.5146  11.5659
    12.1606  12.2206  12.2977  12.3977  13.3211  13.4058

          k =-0.5000-1.4434-0.6263 (  5288 PWs)   bands (ev):

   -33.3090 -33.3090 -33.1912 -33.1912 -32.6044 -32.6044 -31.9982 -31.9982
   -14.5455 -14.5455 -14.4430 -14.4430 -13.8326 -13.8326 -13.3953 -13.3953
   -10.7898 -10.7898 -10.6866 -10.6866 -10.0809 -10.0809  -9.7816  -9.7816
    -9.5822  -9.5822  -9.4986  -9.4986  -9.0299  -9.0299  -8.7793  -8.7793
     5.6358   5.6358   5.9258   5.9258   6.5098   6.5098   6.7430   6.7430
     7.1335   7.1335   7.8770   7.8770   8.1249   8.1249   8.7084   8.7084
    10.1054  10.1054  10.4810  10.4810  11.2172  11.2172  11.3969  11.3969
    12.5167  12.5167  12.6379  12.6379  12.8542  12.8542

          k = 0.0000-0.5773 0.3132 (  5250 PWs)   bands (ev):

   -33.3228 -33.3226 -33.2041 -33.2039 -32.6153 -32.6152 -32.0093 -32.0091
   -14.5079 -14.4926 -14.3881 -14.3682 -13.8126 -13.8068 -13.3730 -13.3642
   -10.7735 -10.7184 -10.6144 -10.5835 -10.0839 -10.0414  -9.7950  -9.7679
    -9.6273  -9.5948  -9.3836  -9.3611  -8.9740  -8.9423  -8.6240  -8.6058
     4.4957   4.5807   5.8541   5.9672   6.1499   6.2194   6.8292   6.8841
     7.1712   7.3014   7.8912   8.0566   8.4547   8.5132   8.9197   8.9490
    10.3187  10.4282  10.8438  10.9378  11.4425  11.4718  11.5465  11.5822
    12.2812  12.3607  12.5427  12.6292  12.8671  12.9542

          k =-0.2500-0.1443 0.3132 (  5261 PWs)   bands (ev):

   -33.3366 -33.3365 -33.2161 -33.2160 -32.6262 -32.6262 -32.0206 -32.0206
   -14.4751 -14.4605 -14.3064 -14.3018 -13.7942 -13.7854 -13.3551 -13.3455
   -10.7200 -10.6782 -10.5036 -10.4918 -10.0644 -10.0283  -9.7985  -9.7600
    -9.5440  -9.5115  -9.3401  -9.3205  -8.8948  -8.8678  -8.4782  -8.4604
     4.1563   4.2444   5.3934   5.4891   5.8591   5.9239   7.2031   7.2808
     7.2990   7.3529   7.7658   7.8531   8.2755   8.4169   9.0665   9.1042
    10.2122  10.2931  11.0074  11.0346  11.4548  11.4996  11.8952  11.9386
    12.0194  12.0746  12.3104  12.3629  12.8241  12.9031

          k =-0.2500-0.7217 0.3132 (  5250 PWs)   bands (ev):

   -33.3217 -33.3216 -33.2051 -33.2050 -32.6150 -32.6148 -32.0098 -32.0096
   -14.5138 -14.4998 -14.3845 -14.3613 -13.8069 -13.8026 -13.3762 -13.3680
   -10.7419 -10.7269 -10.6230 -10.5777 -10.0690 -10.0368  -9.8099  -9.7827
    -9.5798  -9.5488  -9.4361  -9.4052  -8.9410  -8.9156  -8.6746  -8.6427
     4.9487   5.0321   5.4436   5.6166   6.3193   6.4135   6.6722   6.7187
     7.1840   7.3088   7.7352   7.8308   8.4901   8.5485   8.7733   8.8492
    10.4080  10.4501  10.8734  10.9266  11.4707  11.5427  11.7977  11.8570
    12.0568  12.1078  12.3329  12.3745  12.6779  12.7372

          k =-0.2500 1.0104 0.3132 (  5260 PWs)   bands (ev):

   -33.3091 -33.3091 -33.1914 -33.1914 -32.6042 -32.6042 -31.9981 -31.9981
   -14.5535 -14.5448 -14.4417 -14.4296 -13.8358 -13.8290 -13.3958 -13.3926
   -10.8065 -10.7710 -10.7067 -10.6516 -10.1199 -10.0936  -9.8285  -9.7895
    -9.6087  -9.6016  -9.4773  -9.4140  -9.0322  -9.0012  -8.7906  -8.7620
     5.3459   5.3964   6.0197   6.0396   6.2644   6.3429   6.5054   6.5706
     6.9743   7.0362   7.6896   7.7618   8.2486   8.3290   8.9123   8.9327
    10.0822  10.1588  10.9597  10.9904  11.5346  11.5835  11.7262  11.7448
    12.0778  12.1139  12.3905  12.4209  13.5510  13.5992

          k =-0.2500 0.4330 0.3132 (  5259 PWs)   bands (ev):

   -33.3241 -33.3239 -33.2025 -33.2024 -32.6156 -32.6155 -32.0092 -32.0090
   -14.5245 -14.4982 -14.3634 -14.3497 -13.8232 -13.8099 -13.3760 -13.3667
   -10.7943 -10.7345 -10.5860 -10.5447 -10.0829 -10.0505  -9.8280  -9.8037
    -9.6114  -9.5697  -9.3706  -9.3376  -9.0203  -8.9776  -8.6074  -8.5931
     4.7432   4.8086   5.8238   5.8958   6.1529   6.2163   6.8595   7.0077
     7.2881   7.4438   7.7779   7.8172   8.0039   8.1009   8.8210   8.9103
    10.5169  10.5944  10.8098  10.8413  11.0478  11.0981  11.9916  12.0242
    12.2478  12.3093  12.4570  12.5361  13.0331  13.1528

          k = 0.5000-0.2887 0.3132 (  5250 PWs)   bands (ev):

   -33.3232 -33.3230 -33.2036 -33.2035 -32.6151 -32.6150 -32.0096 -32.0094
   -14.5327 -14.5107 -14.3658 -14.3522 -13.8069 -13.8006 -13.3730 -13.3680
   -10.7834 -10.7362 -10.5838 -10.5638 -10.0480 -10.0260  -9.8149  -9.7679
    -9.5608  -9.5437  -9.4531  -9.4225  -8.9926  -8.9634  -8.6490  -8.6198
     4.8743   5.0096   5.7254   5.8062   6.3677   6.4584   6.7085   6.8095
     7.0596   7.0921   7.6736   7.7658   8.5682   8.6601   8.8044   8.8869
    10.1198  10.1800  10.8379  10.8873  11.4438  11.4939  11.6115  11.7003
    12.1659  12.2232  12.2535  12.3032  12.8480  12.9167

     the Fermi energy is    11.1516 ev

!    total energy              =   -2246.18222367 Ry
     Harris-Foulkes estimate   =   -2246.18222428 Ry
     estimated scf accuracy    <       0.00000085 Ry

     total all-electron energy =    -90250.525600 Ry

     The total energy is the sum of the following terms:

     one-electron contribution =     -41.16252606 Ry
     hartree contribution      =      45.30592982 Ry
     xc contribution           =    -258.88564149 Ry
     ewald contribution        =    -243.31098133 Ry
     one-center paw contrib.   =   -1748.12685831 Ry
     smearing contrib. (-TS)   =      -0.00214630 Ry

     convergence has been achieved in  10 iterations

     Forces acting on atoms (cartesian axes, Ry/au):

     atom    1 type  1   force =    -0.03656964    0.02795280   -0.83046700
     atom    2 type  1   force =     0.16568919    0.05578365   -0.91154250
     atom    3 type  1   force =     0.01060911   -0.80072333   -0.53166735
     atom    4 type  1   force =    -0.04167250   -0.86984324   -0.23062767
     atom    5 type  2   force =     0.04646708   -0.05390380    0.81928032
     atom    6 type  2   force =    -0.13522990   -0.12586394    0.76744476
     atom    7 type  2   force =     0.00193996    0.00868243   -0.00513281
     atom    8 type  2   force =    -0.00245910   -0.00381208   -0.00183384
     atom    9 type  2   force =    -0.01602383    0.79803613    0.53684117
     atom   10 type  2   force =     0.04835303    0.86202057    0.20767555
     atom   11 type  2   force =     0.18724113    0.05553380    0.08029331
     atom   12 type  2   force =    -0.22834452    0.04613703    0.09973607

     Total force =     2.531985     Total SCF correction =     0.003415


     Computing stress (Cartesian axis) and pressure

     Message from routine stres:
     noncollinear stress + GGA not implemented

     BFGS Geometry Optimization

     number of scf cycles    =   1
     number of bfgs steps    =   0

     enthalpy new            =   -2246.1822236705 Ry

     new trust radius        =       0.5000000000 bohr
     new conv_thr            =       0.0000010000 Ry

     new unit-cell volume =    880.86361 a.u.^3 (   130.53052 Ang^3 )
     density =      8.10438 g/cm^3

CELL_PARAMETERS (angstrom)
   7.227900000   0.000000000   0.000000000
  -1.807000000   3.129800000   0.000000000
   0.000000000   0.000000000   5.770100000

ATOMIC_POSITIONS (crystal)
Gd       0.332522494   0.335756601   0.710411875
Gd       0.840830970   0.338202484   0.706547029
Gd       0.149510816   0.596329312   0.224655569
Gd       0.646002577   0.590254785   0.239006045
H        0.338983977   0.307462724   1.007854859
H        0.772888410   0.255438586   0.998583873
H        0.952564589   0.913563046   0.509655320
H        0.510422662   0.971564979   0.499412582
H        0.260724084   1.053534526   0.396091066
H        0.792579777   0.125257728   0.308499834
H        0.074345643   0.394680527   0.821127559
H        0.626523998   0.370554702   0.851554390



     Writing output data file 2305.save
     NEW-OLD atomic charge density approx. for the potential

     total cpu time spent up to now is       68.9 secs

     per-process dynamical memory:   134.1 Mb

     Self-consistent Calculation

     iteration #  1     ecut=    50.00 Ry     beta=0.70
     Davidson diagonalization with overlap
     c_bands:  2 eigenvalues not converged
     c_bands:  1 eigenvalues not converged
     c_bands:  1 eigenvalues not converged
     ethr =  1.00E-06,  avg # of iterations = 16.2

     total cpu time spent up to now is       87.7 secs

     total energy              =   -2247.78486018 Ry
     Harris-Foulkes estimate   =   -2248.63115210 Ry
     estimated scf accuracy    <       0.13747783 Ry

     iteration #  2     ecut=    50.00 Ry     beta=0.70
     Davidson diagonalization with overlap
     ethr =  2.64E-04,  avg # of iterations =  3.4

     total cpu time spent up to now is       94.4 secs

     total energy              =   -2247.76145970 Ry
     Harris-Foulkes estimate   =   -2247.85652570 Ry
     estimated scf accuracy    <       0.21154249 Ry

     iteration #  3     ecut=    50.00 Ry     beta=0.70
     Davidson diagonalization with overlap
     ethr =  2.64E-04,  avg # of iterations =  3.4

     total cpu time spent up to now is      100.5 secs

     total energy              =   -2247.80257042 Ry
     Harris-Foulkes estimate   =   -2247.82808817 Ry
     estimated scf accuracy    <       0.07067078 Ry

     iteration #  4     ecut=    50.00 Ry     beta=0.70
     Davidson diagonalization with overlap
     ethr =  1.36E-04,  avg # of iterations =  3.2

     total cpu time spent up to now is      106.1 secs

     total energy              =   -2247.81212677 Ry
     Harris-Foulkes estimate   =   -2247.81935378 Ry
     estimated scf accuracy    <       0.01842125 Ry

     iteration #  5     ecut=    50.00 Ry     beta=0.70
     Davidson diagonalization with overlap
     ethr =  3.54E-05,  avg # of iterations =  2.5

     total cpu time spent up to now is      111.5 secs

     total energy              =   -2247.81544528 Ry
     Harris-Foulkes estimate   =   -2247.81562957 Ry
     estimated scf accuracy    <       0.00044054 Ry

     iteration #  6     ecut=    50.00 Ry     beta=0.70
     Davidson diagonalization with overlap
     ethr =  8.47E-07,  avg # of iterations =  4.3

     total cpu time spent up to now is      118.6 secs

     total energy              =   -2247.81554309 Ry
     Harris-Foulkes estimate   =   -2247.81561597 Ry
     estimated scf accuracy    <       0.00016114 Ry

     iteration #  7     ecut=    50.00 Ry     beta=0.70
     Davidson diagonalization with overlap
     ethr =  3.10E-07,  avg # of iterations =  3.0

     total cpu time spent up to now is      124.1 secs

     total energy              =   -2247.81557612 Ry
     Harris-Foulkes estimate   =   -2247.81560045 Ry
     estimated scf accuracy    <       0.00007273 Ry

     iteration #  8     ecut=    50.00 Ry     beta=0.70
     Davidson diagonalization with overlap
     ethr =  1.40E-07,  avg # of iterations =  2.8

     total cpu time spent up to now is      129.4 secs

     total energy              =   -2247.81558805 Ry
     Harris-Foulkes estimate   =   -2247.81558878 Ry
     estimated scf accuracy    <       0.00000175 Ry

     iteration #  9     ecut=    50.00 Ry     beta=0.70
     Davidson diagonalization with overlap
     ethr =  3.37E-09,  avg # of iterations =  3.2

     total cpu time spent up to now is      135.6 secs

     total energy              =   -2247.81558837 Ry
     Harris-Foulkes estimate   =   -2247.81558889 Ry
     estimated scf accuracy    <       0.00000136 Ry

     iteration # 10     ecut=    50.00 Ry     beta=0.70
     Davidson diagonalization with overlap
     ethr =  2.61E-09,  avg # of iterations =  2.8

     total cpu time spent up to now is      140.9 secs

     End of self-consistent calculation

          k = 0.0000 0.0000 0.0000 (  5289 PWs)   bands (ev):

   -33.0277 -33.0277 -32.8586 -32.8586 -32.1873 -32.1873 -31.6660 -31.6660
   -13.8716 -13.8716 -13.6797 -13.6797 -13.0911 -13.0911 -12.6421 -12.6421
    -9.8445  -9.8445  -9.7002  -9.7002  -9.4680  -9.4680  -9.2673  -9.2673
    -9.1108  -9.1108  -8.7591  -8.7591  -8.4733  -8.4733  -8.2188  -8.2188
     2.8153   2.8153   5.2689   5.2689   5.9181   5.9181   6.0648   6.0648
     7.1196   7.1196   7.8948   7.8948   8.2182   8.2182   9.6500   9.6500
    10.3187  10.3187  11.5541  11.5541  12.1754  12.1754  12.2462  12.2462
    12.5003  12.5003  12.6498  12.6498  13.3655  13.3655

          k = 0.0000 0.0000 0.3132 (  5279 PWs)   bands (ev):

   -33.0269 -33.0269 -32.8582 -32.8582 -32.1883 -32.1883 -31.6665 -31.6665
   -13.8740 -13.8685 -13.6660 -13.6644 -13.1043 -13.0988 -12.6527 -12.6511
    -9.8616  -9.8457  -9.6548  -9.6332  -9.4917  -9.4764  -9.2661  -9.2635
    -9.0900  -9.0438  -8.8009  -8.7887  -8.5292  -8.5217  -8.2224  -8.2192
     3.2362   3.2508   5.1926   5.2292   5.6052   5.6585   6.1310   6.1772
     6.9944   7.0289   7.6481   7.7066   8.1733   8.3074   9.3545   9.3765
    10.4100  10.4239  11.4366  11.4599  11.9700  12.0273  12.1214  12.1508
    12.4194  12.4384  12.4595  12.4906  13.2526  13.2830

          k = 0.0000 0.0000-0.6263 (  5252 PWs)   bands (ev):

   -33.0262 -33.0262 -32.8578 -32.8578 -32.1892 -32.1892 -31.6670 -31.6670
   -13.8714 -13.8714 -13.6495 -13.6495 -13.1125 -13.1125 -12.6620 -12.6620
    -9.8635  -9.8635  -9.5937  -9.5937  -9.4682  -9.4682  -9.2594  -9.2594
    -9.0491  -9.0491  -8.8508  -8.8508  -8.5593  -8.5593  -8.2220  -8.2220
     4.0204   4.0204   4.7240   4.7240   5.4458   5.4458   6.0453   6.0453
     7.0883   7.0883   7.5344   7.5344   8.3743   8.3743   8.8138   8.8138
    10.6825  10.6825  11.2074  11.2074  11.8432  11.8432  12.0927  12.0927
    12.2030  12.2030  12.8869  12.8869  13.0359  13.0359

          k = 0.0000 0.5773 0.0000 (  5253 PWs)   bands (ev):

   -33.0125 -33.0124 -32.8483 -32.8482 -32.1754 -32.1754 -31.6550 -31.6549
   -13.8897 -13.8720 -13.7421 -13.7227 -13.1203 -13.1128 -12.7045 -12.6872
    -9.8269  -9.7720  -9.7317  -9.6986  -9.5816  -9.5625  -9.4685  -9.4395
    -9.0788  -9.0476  -8.8882  -8.8747  -8.5460  -8.5304  -8.4395  -8.4276
     3.8898   3.9422   5.2398   5.4334   6.1084   6.1223   6.3098   6.4052
     6.5148   6.6273   7.4940   7.5173   8.2825   8.3005   9.3386   9.3472
    10.6482  10.7341  11.2754  11.3102  11.5288  11.5633  12.0439  12.0566
    12.4664  12.5194  12.6892  12.7679  13.2527  13.3666

          k = 0.0000 0.5773 0.3132 (  5250 PWs)   bands (ev):

   -33.0120 -33.0120 -32.8479 -32.8479 -32.1761 -32.1761 -31.6553 -31.6553
   -13.8898 -13.8686 -13.7353 -13.7179 -13.1288 -13.1214 -12.7090 -12.6968
    -9.8540  -9.7480  -9.7184  -9.6748  -9.5972  -9.5669  -9.4451  -9.4352
    -9.0741  -9.0172  -8.9022  -8.8798  -8.5760  -8.5578  -8.4326  -8.4224
     4.3253   4.4014   5.4362   5.5779   5.7648   5.7955   6.1490   6.1992
     6.7345   6.8009   7.2192   7.3303   8.1215   8.2272   8.7747   8.7975
    10.7789  10.8860  11.1123  11.1286  11.3611  11.4179  12.3359  12.3795
    12.5653  12.5920  12.7232  12.7601  13.3554  13.4272

          k = 0.0000 0.5773-0.6263 (  5272 PWs)   bands (ev):

   -33.0116 -33.0116 -32.8475 -32.8475 -32.1766 -32.1766 -31.6556 -31.6556
   -13.8921 -13.8675 -13.7316 -13.7118 -13.1365 -13.1284 -12.7169 -12.7012
    -9.8871  -9.7499  -9.7102  -9.6674  -9.6183  -9.5646  -9.4166  -9.3894
    -9.0704  -9.0040  -8.9103  -8.8615  -8.6038  -8.5743  -8.4297  -8.4137
     4.6203   4.6954   5.3816   5.4230   5.7662   5.8088   6.3234   6.4981
     6.5937   6.6568   7.2301   7.3690   7.8800   7.8919   8.4435   8.5071
    10.6883  10.7826  11.0160  11.0765  11.3720  11.4597  11.8190  11.8291
    12.8275  12.8792  13.1104  13.1256  13.2846  13.3392

          k = 0.0000-1.1547 0.0000 (  5284 PWs)   bands (ev):

   -32.9991 -32.9991 -32.8357 -32.8357 -32.1640 -32.1640 -31.6433 -31.6433
   -13.9106 -13.9106 -13.7825 -13.7825 -13.1544 -13.1544 -12.7472 -12.7472
    -9.8957  -9.8957  -9.8219  -9.8219  -9.5365  -9.5365  -9.4593  -9.4593
    -9.1485  -9.1485  -8.9601  -8.9601  -8.5907  -8.5907  -8.5260  -8.5260
     5.0677   5.0677   5.2453   5.2453   5.7705   5.7705   5.9979   5.9979
     6.3632   6.3632   7.2544   7.2544   8.3714   8.3714   9.1947   9.1947
    10.1263  10.1263  11.4698  11.4698  11.7399  11.7399  12.0301  12.0301
    12.5074  12.5074  12.7299  12.7299  13.4966  13.4966

          k = 0.0000-1.1547 0.3132 (  5252 PWs)   bands (ev):

   -32.9990 -32.9990 -32.8355 -32.8355 -32.1643 -32.1643 -31.6435 -31.6435
   -13.9144 -13.9101 -13.7857 -13.7810 -13.1630 -13.1563 -12.7562 -12.7476
    -9.9139  -9.9033  -9.8428  -9.8252  -9.5653  -9.5498  -9.4486  -9.4204
    -9.1286  -9.1084  -8.9652  -8.9151  -8.6119  -8.5827  -8.5242  -8.5094
     4.8852   4.8917   5.2562   5.2948   5.9810   6.0380   6.1513   6.1737
     6.6108   6.6234   7.0327   7.1113   8.0888   8.1570   8.8163   8.8487
    10.2633  10.2860  10.9066  10.9536  11.8987  11.9420  12.2023  12.2345
    12.3321  12.4031  12.5919  12.6117  14.0545  14.1004

          k = 0.0000-1.1547-0.6263 (  5272 PWs)   bands (ev):

   -32.9988 -32.9988 -32.8352 -32.8352 -32.1646 -32.1646 -31.6436 -31.6436
   -13.9138 -13.9138 -13.7843 -13.7843 -13.1646 -13.1646 -12.7567 -12.7567
    -9.9206  -9.9206  -9.8456  -9.8456  -9.5746  -9.5746  -9.4168  -9.4168
    -9.0848  -9.0848  -8.9218  -8.9218  -8.6035  -8.6035  -8.5089  -8.5089
     4.7797   4.7797   5.4542   5.4542   5.8670   5.8670   6.3499   6.3499
     7.0759   7.0759   7.2305   7.2305   7.4604   7.4604   8.4972   8.4972
    10.3670  10.3670  10.5841  10.5841  11.8862  11.8862  12.2147  12.2147
    12.8079  12.8079  13.2936  13.2936  13.5748  13.5748

          k = 0.2500 0.1443 0.0000 (  5279 PWs)   bands (ev):

   -33.0258 -33.0258 -32.8606 -32.8605 -32.1868 -32.1868 -31.6667 -31.6667
   -13.8625 -13.8550 -13.6917 -13.6845 -13.0812 -13.0772 -12.6541 -12.6496
    -9.8208  -9.7903  -9.6950  -9.6731  -9.5075  -9.4808  -9.3429  -9.3204
    -9.0524  -9.0079  -8.7491  -8.7392  -8.5530  -8.5087  -8.2672  -8.2562
     3.1177   3.1485   4.8461   4.8959   6.1565   6.2133   6.2537   6.3064
     7.0241   7.0715   7.6304   7.7337   8.2268   8.3047   9.6593   9.7042
    10.3896  10.4343  11.4321  11.4730  11.8244  11.8478  12.3299  12.3406
    12.3567  12.3957  12.6713  12.7526  12.9521  13.0925

          k = 0.2500 0.1443 0.3132 (  5261 PWs)   bands (ev):

   -33.0251 -33.0251 -32.8601 -32.8601 -32.1876 -32.1876 -31.6672 -31.6672
   -13.8577 -13.8534 -13.6808 -13.6737 -13.0937 -13.0861 -12.6627 -12.6593
    -9.8172  -9.7898  -9.6421  -9.6355  -9.4953  -9.4784  -9.3472  -9.3252
    -9.0281  -9.0207  -8.7857  -8.7730  -8.5805  -8.5353  -8.2743  -8.2562
     3.5232   3.5518   5.1358   5.1718   5.6972   5.7455   5.9609   6.0284
     7.0252   7.1222   7.6751   7.7093   8.2645   8.2964   9.1502   9.1848
    10.4637  10.4754  11.2531  11.2980  11.7333  11.8078  12.2267  12.3030
    12.3804  12.4202  12.6354  12.6805  12.9891  13.0517

          k = 0.2500 0.1443-0.6263 (  5254 PWs)   bands (ev):

   -33.0245 -33.0244 -32.8596 -32.8596 -32.1885 -32.1885 -31.6677 -31.6677
   -13.8567 -13.8486 -13.6699 -13.6614 -13.1029 -13.0988 -12.6725 -12.6679
    -9.8158  -9.7878  -9.6013  -9.5778  -9.4809  -9.4691  -9.3475  -9.3305
    -9.0428  -9.0201  -8.8233  -8.8004  -8.6052  -8.5701  -8.2682  -8.2617
     4.2468   4.2732   4.8781   4.9250   5.3557   5.3767   5.9913   6.0623
     7.0859   7.1152   7.5236   7.5471   8.2187   8.2505   8.7160   8.7435
    10.6715  10.6878  11.0792  11.1200  11.7330  11.7658  12.0755  12.1385
    12.2581  12.3246  12.7204  12.7701  12.8951  12.9171

          k = 0.2500 0.7217 0.0000 (  5270 PWs)   bands (ev):

   -33.0115 -33.0115 -32.8492 -32.8492 -32.1751 -32.1751 -31.6554 -31.6553
   -13.8830 -13.8683 -13.7490 -13.7267 -13.1135 -13.1055 -12.7111 -12.6954
    -9.8167  -9.7859  -9.7169  -9.6924  -9.5721  -9.5371  -9.5092  -9.4767
    -9.0224  -8.9877  -8.8899  -8.8564  -8.6068  -8.5755  -8.4535  -8.4258
     4.3764   4.4415   4.6982   4.7829   6.1867   6.2400   6.3580   6.4241
     6.5408   6.6192   7.3342   7.5029   8.3858   8.4343   9.1761   9.1940
    10.7324  10.7844  11.1666  11.2288  11.6089  11.6419  11.8510  11.9205
    12.2415  12.3238  12.4532  12.5398  13.2730  13.3053

          k = 0.2500 0.7217 0.3132 (  5250 PWs)   bands (ev):

   -33.0111 -33.0111 -32.8488 -32.8487 -32.1757 -32.1757 -31.6557 -31.6557
   -13.8793 -13.8641 -13.7469 -13.7232 -13.1212 -13.1149 -12.7162 -12.7039
    -9.8061  -9.7695  -9.7268  -9.6850  -9.5883  -9.5284  -9.4794  -9.4605
    -9.0526  -8.9997  -8.8738  -8.8579  -8.6261  -8.5833  -8.4394  -8.4321
     4.6884   4.7618   4.9673   5.0448   5.7448   5.8377   6.4976   6.5347
     6.6727   6.7100   7.1916   7.3209   8.0452   8.1274   8.6812   8.7342
    10.7978  10.8607  11.1072  11.1283  11.5119  11.5577  11.8727  11.9651
    12.3714  12.4032  12.6890  12.7231  13.4580  13.4921

          k = 0.2500 0.7217-0.6263 (  5252 PWs)   bands (ev):

   -33.0108 -33.0108 -32.8484 -32.8483 -32.1763 -32.1762 -31.6561 -31.6561
   -13.8787 -13.8618 -13.7453 -13.7204 -13.1290 -13.1215 -12.7231 -12.7089
    -9.8189  -9.7832  -9.7291  -9.6757  -9.5946  -9.5326  -9.4528  -9.4164
    -9.0638  -8.9990  -8.8680  -8.8388  -8.6457  -8.5913  -8.4445  -8.4212
     4.8960   4.9715   5.2294   5.3167   5.5927   5.6103   6.1820   6.2326
     6.9962   7.0490   7.3645   7.4292   7.5920   7.6683   8.5349   8.5764
    10.6348  10.6725  11.0195  11.0529  11.3395  11.3807  11.5598  11.6599
    12.8111  12.8515  13.0481  13.0751  13.2930  13.3673

          k = 0.2500-1.0104 0.0000 (  5254 PWs)   bands (ev):

   -32.9992 -32.9992 -32.8357 -32.8357 -32.1640 -32.1640 -31.6433 -31.6433
   -13.9099 -13.9080 -13.7816 -13.7799 -13.1522 -13.1507 -12.7449 -12.7434
    -9.8919  -9.8611  -9.8202  -9.7847  -9.5861  -9.5610  -9.4868  -9.4714
    -9.1283  -9.1012  -8.9501  -8.9088  -8.6662  -8.6287  -8.5594  -8.5441
     5.0988   5.1346   5.2644   5.2971   5.8334   5.8631   6.1920   6.2638
     6.4304   6.5019   7.1673   7.3216   8.2147   8.2624   9.1076   9.1118
    10.2688  10.3022  11.0172  11.0605  11.6718  11.7325  12.0475  12.1332
    12.4651  12.5222  12.6417  12.7229  13.5523  13.5924

          k = 0.2500-1.0104 0.3132 (  5260 PWs)   bands (ev):

   -32.9990 -32.9990 -32.8355 -32.8355 -32.1643 -32.1643 -31.6435 -31.6435
   -13.9134 -13.9083 -13.7827 -13.7788 -13.1600 -13.1536 -12.7536 -12.7443
    -9.9198  -9.8744  -9.8311  -9.7914  -9.5986  -9.5733  -9.4672  -9.4407
    -9.1099  -9.0840  -8.9319  -8.8860  -8.6713  -8.6195  -8.5607  -8.5291
     4.9291   4.9855   5.2363   5.3246   6.0432   6.1012   6.4973   6.5288
     6.7481   6.7970   7.0089   7.1601   7.8019   7.8943   8.7771   8.7847
    10.3194  10.3454  10.6930  10.7391  11.7139  11.7450  11.9879  12.0444
    12.2854  12.3747  12.7370  12.7842  13.7932  13.8665

          k = 0.2500-1.0104-0.6263 (  5260 PWs)   bands (ev):

   -32.9988 -32.9988 -32.8352 -32.8352 -32.1646 -32.1646 -31.6436 -31.6436
   -13.9132 -13.9115 -13.7819 -13.7804 -13.1628 -13.1612 -12.7545 -12.7532
    -9.9358  -9.8959  -9.8406  -9.7962  -9.6168  -9.5808  -9.4438  -9.4182
    -9.0853  -9.0663  -8.9093  -8.8794  -8.6715  -8.6242  -8.5410  -8.5231
     4.9436   5.0101   5.5121   5.5688   5.9044   5.9542   6.3348   6.3736
     7.0951   7.1250   7.1807   7.2509   7.5544   7.5963   8.3981   8.4235
    10.2337  10.2702  10.6745  10.7406  11.5829  11.6174  11.8031  11.8608
    12.5974  12.6624  13.1408  13.2086  13.4807  13.5174

          k = 0.2500-0.4330 0.0000 (  5251 PWs)   bands (ev):

   -33.0135 -33.0135 -32.8472 -32.8472 -32.1757 -32.1757 -31.6547 -31.6547
   -13.8994 -13.8795 -13.7341 -13.7159 -13.1234 -13.1129 -12.6985 -12.6829
    -9.8722  -9.7923  -9.7382  -9.7004  -9.5600  -9.5370  -9.4555  -9.4168
    -9.0687  -9.0120  -8.9161  -8.8893  -8.5859  -8.5456  -8.4239  -8.4080
     3.6887   3.7354   5.4547   5.6254   6.1007   6.1745   6.4188   6.5188
     6.6965   6.8171   7.4183   7.5491   8.0984   8.1761   9.2702   9.2995
    10.4277  10.5212  11.4543  11.4816  11.5938  11.6140  11.7038  11.7595
    12.7116  12.7839  12.8710  12.9303  13.2333  13.2837

          k = 0.2500-0.4330 0.3132 (  5259 PWs)   bands (ev):

   -33.0131 -33.0130 -32.8469 -32.8468 -32.1762 -32.1762 -31.6550 -31.6550
   -13.9030 -13.8786 -13.7285 -13.7087 -13.1314 -13.1195 -12.7063 -12.6882
    -9.9193  -9.7886  -9.7213  -9.6787  -9.5768  -9.5359  -9.4406  -9.3934
    -9.0526  -8.9946  -8.9084  -8.8788  -8.6111  -8.5755  -8.4157  -8.4027
     3.9450   3.9902   5.5591   5.6958   5.9891   6.0448   6.1792   6.2043
     6.9565   6.9993   7.5125   7.5563   7.9133   7.9509   9.0705   9.1157
    10.4946  10.5892  11.0420  11.0629  11.3786  11.4484  11.6323  11.6885
    12.5835  12.6698  12.8242  12.8685  13.2433  13.3689

          k = 0.2500-0.4330-0.6263 (  5266 PWs)   bands (ev):

   -33.0126 -33.0125 -32.8465 -32.8465 -32.1769 -32.1769 -31.6554 -31.6553
   -13.9053 -13.8768 -13.7187 -13.7011 -13.1402 -13.1282 -12.7121 -12.6978
    -9.9480  -9.7914  -9.6910  -9.6424  -9.5796  -9.5282  -9.4258  -9.3885
    -9.0589  -9.0022  -8.9202  -8.8543  -8.6448  -8.5985  -8.4102  -8.3990
     4.6151   4.6712   5.2475   5.3043   5.9007   5.9410   6.1819   6.2293
     6.9369   7.0553   7.2047   7.3490   7.9399   7.9718   8.4733   8.5402
    10.7134  10.7856  10.9619  10.9987  11.1080  11.2177  11.7944  11.8298
    12.6178  12.6705  12.9697  12.9919  13.1775  13.2381

          k =-0.5000-0.2887 0.0000 (  5254 PWs)   bands (ev):

   -33.0239 -33.0239 -32.8626 -32.8626 -32.1862 -32.1862 -31.6674 -31.6674
   -13.8445 -13.8445 -13.6979 -13.6979 -13.0668 -13.0668 -12.6622 -12.6622
    -9.7758  -9.7758  -9.6214  -9.6214  -9.5365  -9.5365  -9.4142  -9.4142
    -8.9255  -8.9255  -8.7012  -8.7012  -8.6509  -8.6509  -8.2966  -8.2966
     3.7471   3.7471   4.2002   4.2002   6.4423   6.4423   6.7492   6.7492
     6.9206   6.9206   7.2208   7.2208   8.4031   8.4031   9.5910   9.5910
    10.7289  10.7289  11.1149  11.1149  11.7383  11.7383  11.9325  11.9325
    12.4631  12.4631  12.5889  12.5889  13.2564  13.2564

          k =-0.5000-0.2887 0.3132 (  5256 PWs)   bands (ev):

   -33.0233 -33.0233 -32.8620 -32.8620 -32.1870 -32.1870 -31.6679 -31.6679
   -13.8395 -13.8352 -13.6921 -13.6918 -13.0795 -13.0759 -12.6721 -12.6689
    -9.7493  -9.7336  -9.6184  -9.5955  -9.5298  -9.5164  -9.4234  -9.4055
    -8.9852  -8.9535  -8.7513  -8.7068  -8.6641  -8.6236  -8.3094  -8.2926
     4.0479   4.0624   4.4883   4.5067   5.9228   6.0186   6.4813   6.5546
     7.0284   7.1956   7.2765   7.3167   8.0406   8.0661   9.2109   9.2517
    10.7048  10.7525  11.0907  11.1084  11.4080  11.4775  12.1654  12.1913
    12.4467  12.4909  12.6619  12.7031  13.2910  13.3945

          k =-0.5000-0.2887-0.6263 (  5256 PWs)   bands (ev):

   -33.0227 -33.0227 -32.8615 -32.8615 -32.1879 -32.1879 -31.6685 -31.6685
   -13.8301 -13.8301 -13.6857 -13.6857 -13.0888 -13.0888 -12.6788 -12.6788
    -9.7051  -9.7051  -9.5741  -9.5741  -9.5335  -9.5335  -9.4101  -9.4101
    -9.0154  -9.0154  -8.7384  -8.7384  -8.6547  -8.6547  -8.3052  -8.3052
     4.6503   4.6503   4.9786   4.9786   5.2587   5.2587   5.9845   5.9845
     7.2841   7.2841   7.5310   7.5310   7.7765   7.7765   8.7962   8.7962
    10.7330  10.7330  11.0044  11.0044  11.6869  11.6869  11.7879  11.7879
    12.4591  12.4591  12.8547  12.8547  13.1356  13.1356

          k =-0.5000 0.2887 0.0000 (  5253 PWs)   bands (ev):

   -33.0126 -33.0126 -32.8481 -32.8481 -32.1753 -32.1753 -31.6551 -31.6551
   -13.8931 -13.8766 -13.7398 -13.7197 -13.1162 -13.1063 -12.7047 -12.6912
    -9.8575  -9.8046  -9.7360  -9.6910  -9.5506  -9.5239  -9.4843  -9.4494
    -9.0077  -8.9715  -8.8948  -8.8521  -8.6558  -8.6208  -8.4304  -8.4021
     3.9358   3.9863   5.1672   5.2827   6.1253   6.2138   6.5239   6.6067
     6.7346   6.8201   7.2443   7.3815   8.2643   8.2962   9.1250   9.1774
    10.4617  10.5247  11.0991  11.1805  11.8027  11.8471  11.8868  11.9377
    12.3757  12.4340  12.6306  12.6574  13.1615  13.2636

          k =-0.5000 0.2887 0.3132 (  5250 PWs)   bands (ev):

   -33.0121 -33.0121 -32.8477 -32.8477 -32.1760 -32.1759 -31.6555 -31.6554
   -13.8919 -13.8742 -13.7345 -13.7136 -13.1240 -13.1155 -12.7110 -12.6995
    -9.8808  -9.8004  -9.6978  -9.6663  -9.5555  -9.5193  -9.4742  -9.4447
    -9.0315  -8.9895  -8.8704  -8.8545  -8.6685  -8.6364  -8.4251  -8.4032
     4.2655   4.3082   5.3170   5.4174   5.9848   6.0584   6.4283   6.5234
     6.9683   7.0411   7.1729   7.2141   7.7914   7.8165   8.7317   8.7833
    10.7689  10.8042  10.9535  11.0166  11.2438  11.3242  12.1486  12.1769
    12.5330  12.5600  12.6480  12.6738  13.3263  13.3650

          k =-0.5000 0.2887-0.6263 (  5272 PWs)   bands (ev):

   -33.0118 -33.0117 -32.8474 -32.8473 -32.1765 -32.1765 -31.6558 -31.6558
   -13.8939 -13.8723 -13.7295 -13.7094 -13.1325 -13.1217 -12.7179 -12.7057
    -9.9132  -9.8064  -9.6809  -9.6436  -9.5699  -9.4975  -9.4507  -9.4328
    -9.0518  -8.9978  -8.8738  -8.8249  -8.6925  -8.6242  -8.4264  -8.4012
     4.8224   4.8656   5.3088   5.3652   5.4808   5.5642   6.2311   6.2684
     7.1941   7.3185   7.3530   7.3801   7.7077   7.7365   8.5633   8.5909
    10.4574  10.4978  10.9562  11.0121  11.2075  11.3295  11.7016  11.7550
    12.5903  12.6415  12.8631  12.9052  13.1284  13.1894

          k =-0.5000-1.4434 0.0000 (  5252 PWs)   bands (ev):

   -32.9992 -32.9992 -32.8358 -32.8358 -32.1640 -32.1640 -31.6433 -31.6433
   -13.9073 -13.9073 -13.7790 -13.7790 -13.1485 -13.1485 -12.7411 -12.7411
    -9.8609  -9.8609  -9.7685  -9.7685  -9.6192  -9.6192  -9.5017  -9.5017
    -9.0774  -9.0774  -8.8803  -8.8803  -8.7238  -8.7238  -8.5796  -8.5796
     5.1557   5.1557   5.3287   5.3287   5.9088   5.9088   6.4478   6.4478
     6.7833   6.7833   7.0702   7.0702   8.1041   8.1041   8.9758   8.9758
    10.4952  10.4952  10.8078  10.8078  11.7787  11.7787  11.9144  11.9144
    12.4103  12.4103  12.5236  12.5236  13.7579  13.7579

          k =-0.5000-1.4434 0.3132 (  5244 PWs)   bands (ev):

   -32.9990 -32.9990 -32.8355 -32.8355 -32.1643 -32.1643 -31.6435 -31.6435
   -13.9107 -13.9075 -13.7807 -13.7764 -13.1574 -13.1504 -12.7498 -12.7424
    -9.9013  -9.8794  -9.7824  -9.7676  -9.6272  -9.6089  -9.5006  -9.4568
    -9.0802  -9.0524  -8.8926  -8.8574  -8.7248  -8.6946  -8.5801  -8.5568
     5.2087   5.2601   5.3441   5.4420   5.9490   6.0313   6.3031   6.3875
     6.9067   6.9403   7.1495   7.2501   7.8366   7.8837   8.6917   8.7186
    10.3655  10.3923  10.9175  10.9501  11.2560  11.3471  11.6775  11.7700
    12.3031  12.3596  12.5302  12.5932  13.9186  14.0217

          k =-0.5000-1.4434-0.6263 (  5288 PWs)   bands (ev):

   -32.9988 -32.9988 -32.8352 -32.8352 -32.1646 -32.1646 -31.6437 -31.6437
   -13.9109 -13.9109 -13.7781 -13.7781 -13.1594 -13.1594 -12.7510 -12.7510
    -9.9160  -9.9160  -9.7813  -9.7813  -9.6249  -9.6249  -9.4520  -9.4520
    -9.0555  -9.0555  -8.8691  -8.8691  -8.6959  -8.6959  -8.5572  -8.5572
     5.3051   5.3051   5.4643   5.4643   6.0976   6.0976   6.2900   6.2900
     7.1240   7.1240   7.2487   7.2487   7.6499   7.6499   8.3404   8.3404
    10.3484  10.3484  10.6697  10.6697  11.2689  11.2689  11.4408  11.4408
    12.8629  12.8629  13.0242  13.0242  13.1090  13.1090

          k = 0.0000-0.5773 0.3132 (  5250 PWs)   bands (ev):

   -33.0121 -33.0120 -32.8479 -32.8479 -32.1760 -32.1760 -31.6553 -31.6553
   -13.8916 -13.8709 -13.7389 -13.7168 -13.1277 -13.1200 -12.7124 -12.6913
    -9.8655  -9.7690  -9.7177  -9.6951  -9.6017  -9.5624  -9.4539  -9.3962
    -9.0662  -9.0153  -8.8839  -8.8743  -8.5780  -8.5525  -8.4366  -8.4154
     4.0534   4.0922   5.3614   5.5110   6.0211   6.0597   6.3012   6.3307
     6.8418   6.8725   7.4439   7.4753   7.8251   7.8607   9.1036   9.1179
    10.6676  10.7651  10.9761  11.0103  11.4742  11.5374  11.8232  11.8350
    12.6212  12.6841  12.8115  12.8341  13.3768  13.4103

          k =-0.2500-0.1443 0.3132 (  5261 PWs)   bands (ev):

   -33.0251 -33.0251 -32.8601 -32.8601 -32.1876 -32.1876 -31.6672 -31.6672
   -13.8617 -13.8492 -13.6819 -13.6730 -13.0919 -13.0878 -12.6640 -12.6577
    -9.8203  -9.7790  -9.6676  -9.6155  -9.5046  -9.4848  -9.3436  -9.3187
    -9.0566  -8.9828  -8.7886  -8.7614  -8.5856  -8.5506  -8.2638  -8.2597
     3.5032   3.5415   4.8690   4.9120   5.7756   5.8455   6.6302   6.6686
     6.9021   6.9567   7.4001   7.4332   7.9898   8.1007   9.3741   9.4005
    10.5423  10.5970  11.3285  11.3765  11.8468  11.8769  11.9768  12.0061
    12.2727  12.3686  12.5309  12.5531  13.1021  13.1918

          k =-0.2500-0.7217 0.3132 (  5250 PWs)   bands (ev):

   -33.0112 -33.0112 -32.8488 -32.8488 -32.1756 -32.1756 -31.6557 -31.6557
   -13.8824 -13.8662 -13.7475 -13.7238 -13.1212 -13.1123 -12.7180 -12.7002
    -9.8250  -9.8025  -9.7242  -9.6887  -9.5681  -9.5378  -9.4830  -9.4339
    -9.0354  -8.9953  -8.8781  -8.8473  -8.6227  -8.5807  -8.4489  -8.4204
     4.4996   4.5532   4.8396   4.9345   6.0209   6.1104   6.3238   6.3714
     6.7653   6.8926   7.3566   7.4640   8.0510   8.0873   9.0306   9.0419
    10.5410  10.5739  10.9951  11.0224  11.4939  11.5582  11.8784  11.9646
    12.2547  12.3122  12.5019  12.5790  13.3691  13.4136

          k =-0.2500 1.0104 0.3132 (  5260 PWs)   bands (ev):

   -32.9990 -32.9990 -32.8355 -32.8355 -32.1643 -32.1643 -31.6435 -31.6435
   -13.9119 -13.9090 -13.7839 -13.7784 -13.1605 -13.1530 -12.7524 -12.7456
    -9.9133  -9.8803  -9.8341  -9.7868  -9.6039  -9.5663  -9.4725  -9.4380
    -9.1090  -9.0786  -8.9426  -8.8887  -8.6707  -8.6285  -8.5408  -8.5355
     5.1018   5.1960   5.4042   5.4739   5.8522   5.8858   6.0561   6.0988
     6.6672   6.7329   7.1279   7.1717   8.1593   8.2199   8.7431   8.7693
    10.3624  10.3980  10.8091  10.8566  11.6186  11.7111  11.7981  11.8869
    12.4207  12.4682  12.6787  12.7019  13.8888  13.9375

          k =-0.2500 0.4330 0.3132 (  5259 PWs)   bands (ev):

   -33.0130 -33.0130 -32.8468 -32.8468 -32.1763 -32.1763 -31.6550 -31.6550
   -13.9013 -13.8776 -13.7250 -13.7085 -13.1318 -13.1217 -12.7042 -12.6923
    -9.9100  -9.7881  -9.6982  -9.6615  -9.5739  -9.5374  -9.4498  -9.4160
    -9.0575  -8.9963  -8.9126  -8.8846  -8.6258  -8.5819  -8.4162  -8.4015
     4.1086   4.1534   5.5681   5.6600   5.8964   5.9743   6.3680   6.4678
     6.7585   6.8721   7.2038   7.2447   7.9879   8.0405   8.7865   8.8185
    10.6846  10.7789  11.1039  11.1397  11.2442  11.2760  12.3163  12.3458
    12.5107  12.5918  12.8049  12.8293  13.2727  13.3713

          k = 0.5000-0.2887 0.3132 (  5250 PWs)   bands (ev):

   -33.0122 -33.0122 -32.8477 -32.8477 -32.1759 -32.1759 -31.6554 -31.6554
   -13.8949 -13.8748 -13.7354 -13.7155 -13.1244 -13.1125 -12.7116 -12.6972
    -9.8958  -9.8082  -9.7187  -9.6736  -9.5515  -9.5046  -9.4681  -9.4354
    -9.0254  -8.9772  -8.8939  -8.8365  -8.6699  -8.6152  -8.4291  -8.3993
     4.2213   4.2774   5.2117   5.3040   5.9143   5.9869   6.2539   6.3281
     6.9432   7.0864   7.3667   7.4814   8.2004   8.2281   8.9704   8.9975
    10.3063  10.3496  11.1080  11.1462  11.4405  11.5088  11.6201  11.7208
    12.3096  12.3499  12.5890  12.6115  13.4403  13.5582

     the Fermi energy is    11.3244 ev

!    total energy              =   -2247.81558853 Ry
     Harris-Foulkes estimate   =   -2247.81558868 Ry
     estimated scf accuracy    <       0.00000016 Ry

     total all-electron energy =    -90252.158965 Ry

     The total energy is the sum of the following terms:

     one-electron contribution =     -33.42097911 Ry
     hartree contribution      =      41.34481459 Ry
     xc contribution           =    -258.04393555 Ry
     ewald contribution        =    -249.61130478 Ry
     one-center paw contrib.   =   -1748.08166463 Ry
     smearing contrib. (-TS)   =      -0.00251906 Ry

     convergence has been achieved in  10 iterations

     Forces acting on atoms (cartesian axes, Ry/au):

     atom    1 type  1   force =     0.01223546   -0.00121943   -0.12044076
     atom    2 type  1   force =    -0.03791438   -0.03738499   -0.19109915
     atom    3 type  1   force =    -0.00660493   -0.11937057   -0.09991774
     atom    4 type  1   force =     0.01091154   -0.13488868   -0.08519286
     atom    5 type  2   force =    -0.00148425   -0.01834467    0.17911671
     atom    6 type  2   force =     0.00128114   -0.01724508    0.14451051
     atom    7 type  2   force =     0.00065334    0.01034957   -0.01596676
     atom    8 type  2   force =    -0.00079535   -0.01264572   -0.00732754
     atom    9 type  2   force =    -0.00411996    0.11412673    0.03071046
     atom   10 type  2   force =     0.00477741    0.14942172    0.04832058
     atom   11 type  2   force =     0.12366981    0.03628186    0.07932529
     atom   12 type  2   force =    -0.10260984    0.03091926    0.03796126

     Total force =     0.482223     Total SCF correction =     0.001233


     Computing stress (Cartesian axis) and pressure

     Message from routine stres:
     noncollinear stress + GGA not implemented

     number of scf cycles    =   2
     number of bfgs steps    =   1

     enthalpy old            =   -2246.1822236705 Ry
     enthalpy new            =   -2247.8155885315 Ry

     CASE: enthalpy_new < enthalpy_old

     new trust radius        =       0.1669135546 bohr
     new conv_thr            =       0.0000010000 Ry

     new unit-cell volume =    880.86361 a.u.^3 (   130.53052 Ang^3 )
     density =      8.10438 g/cm^3

CELL_PARAMETERS (angstrom)
   7.227900000   0.000000000   0.000000000
  -1.807000000   3.129800000   0.000000000
   0.000000000   0.000000000   5.770100000

ATOMIC_POSITIONS (crystal)
Gd       0.333684039   0.335067917   0.704106187
Gd       0.834208917   0.329670113   0.693082739
Gd       0.145884638   0.584456250   0.218084637
Gd       0.643762101   0.576289035   0.231506696
H        0.337808754   0.304552219   1.020773921
H        0.773532715   0.253883275   1.008100179
H        0.953105153   0.915546281   0.507925352
H        0.509736351   0.969035015   0.498614213
H        0.263178048   1.064375853   0.394929953
H        0.796940951   0.142322665   0.312098679
H        0.085679268   0.401238946   0.829255597
H        0.620379066   0.376162428   0.854921847



     Writing output data file 2305.save
     NEW-OLD atomic charge density approx. for the potential

     total cpu time spent up to now is      145.0 secs

     per-process dynamical memory:   134.1 Mb

     Self-consistent Calculation

     iteration #  1     ecut=    50.00 Ry     beta=0.70
     Davidson diagonalization with overlap
     ethr =  1.00E-06,  avg # of iterations = 10.5

     total cpu time spent up to now is      160.9 secs

     total energy              =   -2247.94981849 Ry
     Harris-Foulkes estimate   =   -2248.00982027 Ry
     estimated scf accuracy    <       0.01346496 Ry

     iteration #  2     ecut=    50.00 Ry     beta=0.70
     Davidson diagonalization with overlap
     ethr =  2.59E-05,  avg # of iterations =  4.1

     total cpu time spent up to now is      168.2 secs

     total energy              =   -2247.94644693 Ry
     Harris-Foulkes estimate   =   -2247.96236848 Ry
     estimated scf accuracy    <       0.04232512 Ry

     iteration #  3     ecut=    50.00 Ry     beta=0.70
     Davidson diagonalization with overlap
     ethr =  2.59E-05,  avg # of iterations =  3.8

     total cpu time spent up to now is      174.9 secs

     total energy              =   -2247.95385611 Ry
     Harris-Foulkes estimate   =   -2247.95524768 Ry
     estimated scf accuracy    <       0.00331019 Ry

     iteration #  4     ecut=    50.00 Ry     beta=0.70
     Davidson diagonalization with overlap
     ethr =  6.37E-06,  avg # of iterations =  2.9

     total cpu time spent up to now is      180.5 secs

     total energy              =   -2247.95426264 Ry
     Harris-Foulkes estimate   =   -2247.95478038 Ry
     estimated scf accuracy    <       0.00126047 Ry

     iteration #  5     ecut=    50.00 Ry     beta=0.70
     Davidson diagonalization with overlap
     ethr =  2.42E-06,  avg # of iterations =  2.7

     total cpu time spent up to now is      185.9 secs

     total energy              =   -2247.95445930 Ry
     Harris-Foulkes estimate   =   -2247.95457786 Ry
     estimated scf accuracy    <       0.00031274 Ry

     iteration #  6     ecut=    50.00 Ry     beta=0.70
     Davidson diagonalization with overlap
     ethr =  6.01E-07,  avg # of iterations =  2.5

     total cpu time spent up to now is      191.1 secs

     total energy              =   -2247.95451170 Ry
     Harris-Foulkes estimate   =   -2247.95452330 Ry
     estimated scf accuracy    <       0.00002442 Ry

     iteration #  7     ecut=    50.00 Ry     beta=0.70
     Davidson diagonalization with overlap
     ethr =  4.70E-08,  avg # of iterations =  2.6

     total cpu time spent up to now is      196.4 secs

     total energy              =   -2247.95451697 Ry
     Harris-Foulkes estimate   =   -2247.95451814 Ry
     estimated scf accuracy    <       0.00000226 Ry

     iteration #  8     ecut=    50.00 Ry     beta=0.70
     Davidson diagonalization with overlap
     ethr =  4.34E-09,  avg # of iterations =  2.9

     total cpu time spent up to now is      202.1 secs

     End of self-consistent calculation

          k = 0.0000 0.0000 0.0000 (  5289 PWs)   bands (ev):

   -33.0081 -33.0081 -32.8171 -32.8171 -32.1628 -32.1628 -31.7809 -31.7809
   -13.8398 -13.8398 -13.6326 -13.6326 -13.0550 -13.0550 -12.6839 -12.6839
    -9.8021  -9.8021  -9.6574  -9.6574  -9.4292  -9.4292  -9.2113  -9.2113
    -9.0556  -9.0556  -8.7219  -8.7219  -8.4576  -8.4576  -8.2612  -8.2612
     2.7473   2.7473   5.1673   5.1673   5.9361   5.9361   6.0778   6.0778
     7.0812   7.0812   7.7331   7.7331   8.1365   8.1365   9.7444   9.7444
    10.5281  10.5281  11.6163  11.6163  12.2058  12.2058  12.3812  12.3812
    12.5289  12.5289  12.6500  12.6500  13.3345  13.3345

          k = 0.0000 0.0000 0.3132 (  5279 PWs)   bands (ev):

   -33.0074 -33.0074 -32.8166 -32.8166 -32.1637 -32.1637 -31.7815 -31.7815
   -13.8417 -13.8368 -13.6187 -13.6172 -13.0674 -13.0622 -12.6959 -12.6938
    -9.8164  -9.8038  -9.6130  -9.5917  -9.4535  -9.4386  -9.2135  -9.2090
    -9.0271  -8.9851  -8.7555  -8.7454  -8.5230  -8.5157  -8.2646  -8.2613
     3.1752   3.1832   5.1473   5.1747   5.6016   5.6510   6.0935   6.1274
     6.9799   7.0152   7.5559   7.6104   8.0396   8.1756   9.4400   9.4655
    10.4666  10.4771  11.5694  11.6010  12.0119  12.0729  12.1248  12.1651
    12.4847  12.4878  12.5157  12.5369  13.2327  13.2652

          k = 0.0000 0.0000-0.6263 (  5252 PWs)   bands (ev):

   -33.0066 -33.0066 -32.8161 -32.8161 -32.1647 -32.1647 -31.7820 -31.7820
   -13.8392 -13.8392 -13.6021 -13.6021 -13.0751 -13.0751 -12.7061 -12.7061
    -9.8191  -9.8191  -9.5568  -9.5568  -9.4258  -9.4258  -9.2096  -9.2096
    -8.9792  -8.9792  -8.8085  -8.8085  -8.5568  -8.5568  -8.2642  -8.2642
     3.9587   3.9587   4.7110   4.7110   5.4071   5.4071   6.0040   6.0040
     7.0184   7.0184   7.4757   7.4757   8.4466   8.4466   8.6408   8.6408
    10.6741  10.6741  11.3761  11.3761  11.8899  11.8899  12.1117  12.1117
    12.2420  12.2420  12.9168  12.9168  13.0700  13.0700

          k = 0.0000 0.5773 0.0000 (  5253 PWs)   bands (ev):

   -32.9933 -32.9932 -32.8064 -32.8064 -32.1506 -32.1506 -31.7702 -31.7702
   -13.8596 -13.8427 -13.6908 -13.6717 -13.0812 -13.0734 -12.7542 -12.7348
    -9.7787  -9.7218  -9.6887  -9.6665  -9.5178  -9.5040  -9.4389  -9.4031
    -9.0166  -8.9845  -8.8492  -8.8431  -8.5578  -8.5510  -8.4538  -8.4421
     3.8167   3.8467   5.1737   5.3592   6.1286   6.1402   6.3402   6.4159
     6.4753   6.5445   7.3657   7.3844   8.2045   8.2208   9.4413   9.4498
    10.6951  10.7800  11.2824  11.3183  11.6061  11.6421  12.1636  12.1767
    12.4518  12.4956  12.6904  12.7573  13.3442  13.4559

          k = 0.0000 0.5773 0.3132 (  5250 PWs)   bands (ev):

   -32.9928 -32.9928 -32.8060 -32.8060 -32.1512 -32.1512 -31.7706 -31.7706
   -13.8596 -13.8396 -13.6837 -13.6665 -13.0893 -13.0819 -12.7587 -12.7456
    -9.8068  -9.6975  -9.6806  -9.6377  -9.5415  -9.5004  -9.4125  -9.4042
    -9.0059  -8.9510  -8.8648  -8.8462  -8.5861  -8.5643  -8.4640  -8.4425
     4.2593   4.3217   5.3886   5.5389   5.7506   5.7818   6.1246   6.1744
     6.7328   6.7715   7.1420   7.2497   7.9530   8.0559   8.8735   8.8901
    10.8097  10.9169  11.1621  11.1837  11.4084  11.4705  12.3736  12.4128
    12.5655  12.5954  12.7390  12.7667  13.3241  13.3668

          k = 0.0000 0.5773-0.6263 (  5272 PWs)   bands (ev):

   -32.9924 -32.9924 -32.8055 -32.8055 -32.1518 -32.1518 -31.7710 -31.7710
   -13.8616 -13.8387 -13.6795 -13.6600 -13.0968 -13.0892 -12.7675 -12.7500
    -9.8376  -9.7022  -9.6713  -9.6278  -9.5569  -9.5058  -9.3932  -9.3618
    -8.9925  -8.9341  -8.8795  -8.8226  -8.6060  -8.5706  -8.4664  -8.4473
     4.6123   4.6569   5.3150   5.3462   5.7941   5.8227   6.2024   6.3790
     6.5687   6.6261   7.2075   7.3423   7.8784   7.8834   8.3445   8.3791
    10.7173  10.8017  11.0207  11.0843  11.4012  11.4960  11.8063  11.8248
    12.8889  12.9312  13.1390  13.1629  13.2801  13.3202

          k = 0.0000-1.1547 0.0000 (  5284 PWs)   bands (ev):

   -32.9801 -32.9801 -32.7938 -32.7938 -32.1389 -32.1389 -31.7588 -31.7588
   -13.8811 -13.8811 -13.7289 -13.7289 -13.1148 -13.1148 -12.8002 -12.8002
    -9.8371  -9.8371  -9.7762  -9.7762  -9.5019  -9.5019  -9.4168  -9.4168
    -9.0935  -9.0935  -8.9385  -8.9385  -8.6032  -8.6032  -8.5209  -8.5209
     4.9408   4.9408   5.2186   5.2186   5.7249   5.7249   6.0177   6.0177
     6.3530   6.3530   7.2097   7.2097   8.2590   8.2590   9.2689   9.2689
    10.1509  10.1509  11.4920  11.4920  11.7992  11.7992  12.0142  12.0142
    12.4834  12.4834  12.8112  12.8112  13.4285  13.4285

          k = 0.0000-1.1547 0.3132 (  5252 PWs)   bands (ev):

   -32.9799 -32.9799 -32.7935 -32.7935 -32.1393 -32.1393 -31.7590 -31.7590
   -13.8845 -13.8806 -13.7319 -13.7271 -13.1234 -13.1168 -12.8093 -12.8008
    -9.8558  -9.8464  -9.7919  -9.7798  -9.5271  -9.5091  -9.4176  -9.3917
    -9.0651  -9.0517  -8.9470  -8.8880  -8.6083  -8.5871  -8.5390  -8.5093
     4.8345   4.8668   5.2096   5.2376   5.9117   5.9703   6.1364   6.1488
     6.6470   6.6661   6.9591   7.0217   8.0330   8.1212   8.7804   8.8062
    10.3037  10.3175  10.8220  10.8758  11.9046  11.9551  12.2109  12.2742
    12.3265  12.4368  12.5863  12.6193  14.1184  14.1732

          k = 0.0000-1.1547-0.6263 (  5272 PWs)   bands (ev):

   -32.9798 -32.9798 -32.7932 -32.7932 -32.1396 -32.1396 -31.7592 -31.7592
   -13.8839 -13.8839 -13.7303 -13.7303 -13.1252 -13.1252 -12.8101 -12.8101
    -9.8638  -9.8638  -9.7955  -9.7955  -9.5360  -9.5360  -9.3911  -9.3911
    -9.0230  -9.0230  -8.8973  -8.8973  -8.5965  -8.5965  -8.5239  -8.5239
     4.7738   4.7738   5.4153   5.4153   5.8705   5.8705   6.2145   6.2145
     7.0308   7.0308   7.2791   7.2791   7.4989   7.4989   8.3114   8.3114
    10.2473  10.2473  10.5914  10.5914  11.8690  11.8690  12.1911  12.1911
    12.9261  12.9261  13.2486  13.2486  13.7145  13.7145

          k = 0.2500 0.1443 0.0000 (  5279 PWs)   bands (ev):

   -33.0064 -33.0064 -32.8189 -32.8189 -32.1621 -32.1621 -31.7818 -31.7818
   -13.8310 -13.8248 -13.6429 -13.6369 -13.0430 -13.0388 -12.6986 -12.6940
    -9.7772  -9.7518  -9.6459  -9.6333  -9.4702  -9.4405  -9.2823  -9.2658
    -8.9969  -8.9541  -8.7109  -8.7024  -8.5248  -8.4902  -8.3177  -8.3065
     3.0546   3.0717   4.7814   4.8052   6.1717   6.2129   6.2287   6.2780
     6.9830   7.0250   7.4540   7.5783   8.2203   8.3019   9.7651   9.8064
    10.4928  10.5333  11.4819  11.5215  11.8599  11.8794  12.3507  12.3684
    12.3865  12.4205  12.7215  12.7761  13.0311  13.1354

          k = 0.2500 0.1443 0.3132 (  5261 PWs)   bands (ev):

   -33.0057 -33.0057 -32.8183 -32.8183 -32.1630 -32.1630 -31.7823 -31.7823
   -13.8263 -13.8231 -13.6317 -13.6259 -13.0545 -13.0476 -12.7081 -12.7047
    -9.7730  -9.7479  -9.5990  -9.5940  -9.4612  -9.4368  -9.2906  -9.2732
    -8.9659  -8.9573  -8.7427  -8.7337  -8.5623  -8.5230  -8.3241  -8.3055
     3.4640   3.4817   5.0614   5.0748   5.7323   5.7683   5.9092   5.9755
     7.0016   7.0958   7.5504   7.5919   8.1708   8.1996   9.2412   9.2790
    10.5207  10.5303  11.3106  11.3451  11.7262  11.8002  12.3207  12.3926
    12.4469  12.4756  12.6650  12.7237  12.9711  13.0488

          k = 0.2500 0.1443-0.6263 (  5254 PWs)   bands (ev):

   -33.0051 -33.0051 -32.8178 -32.8177 -32.1638 -32.1638 -31.7829 -31.7829
   -13.8252 -13.8187 -13.6202 -13.6134 -13.0637 -13.0596 -12.7188 -12.7141
    -9.7698  -9.7474  -9.5596  -9.5413  -9.4394  -9.4244  -9.2985  -9.2840
    -8.9697  -8.9476  -8.7841  -8.7600  -8.5971  -8.5580  -8.3171  -8.3101
     4.1894   4.2057   4.8720   4.9139   5.3267   5.3385   5.9049   5.9757
     7.0008   7.0374   7.5110   7.5431   8.2108   8.2307   8.6384   8.6507
    10.6869  10.7017  11.1485  11.1852  11.7295  11.7568  12.1595  12.1932
    12.2601  12.3676  12.7564  12.8129  12.9652  12.9867

          k = 0.2500 0.7217 0.0000 (  5270 PWs)   bands (ev):

   -32.9924 -32.9924 -32.8073 -32.8073 -32.1501 -32.1501 -31.7707 -31.7707
   -13.8533 -13.8392 -13.6970 -13.6753 -13.0732 -13.0649 -12.7621 -12.7449
    -9.7574  -9.7320  -9.6802  -9.6632  -9.5168  -9.4852  -9.4597  -9.4491
    -8.9556  -8.9237  -8.8704  -8.8325  -8.5707  -8.5545  -8.5046  -8.4714
     4.2818   4.3485   4.6518   4.7252   6.1541   6.2228   6.3209   6.4096
[...]
    12.4883  12.4911  12.9214  12.9310  13.6105  13.6148

          k = 0.2500 0.7217 0.0000 (  5270 PWs)   bands (ev):

   -32.9040 -32.9040 -32.8893 -32.8893 -32.0503 -32.0503 -32.0432 -32.0432
   -13.7503 -13.7380 -13.7335 -13.7208 -12.9467 -12.9406 -12.9393 -12.9336
    -9.6616  -9.6601  -9.6285  -9.6252  -9.4390  -9.4368  -9.4297  -9.4251
    -8.8584  -8.8574  -8.8359  -8.8331  -8.6089  -8.6072  -8.5872  -8.5856
     4.2808   4.2856   4.3688   4.3733   6.1815   6.1873   6.2070   6.2120
     6.8038   6.8224   6.8366   6.8511   8.8537   8.8573   8.8948   8.8985
    10.9514  10.9597  10.9759  10.9838  11.9233  11.9326  11.9491  11.9593
    12.3173  12.3227  12.4097  12.4155  14.1020  14.1065

          k = 0.2500 0.7217 0.3132 (  5250 PWs)   bands (ev):

   -32.9037 -32.9036 -32.8889 -32.8889 -32.0507 -32.0507 -32.0437 -32.0437
   -13.7492 -13.7371 -13.7302 -13.7177 -12.9554 -12.9501 -12.9438 -12.9389
    -9.6667  -9.6642  -9.6201  -9.6177  -9.4556  -9.4515  -9.4091  -9.4058
    -8.8654  -8.8563  -8.8220  -8.8173  -8.6144  -8.6127  -8.5902  -8.5878
     4.5626   4.6393   4.6408   4.7269   6.1628   6.1764   6.2221   6.2443
     6.6894   6.7170   6.7277   6.7956   8.3219   8.3579   8.3747   8.3989
    10.5930  10.6333  10.6555  10.7113  11.8287  11.9147  11.9424  11.9755
    12.4748  12.5052  12.5210  12.5406  14.0250  14.0900

          k = 0.2500 0.7217-0.6263 (  5252 PWs)   bands (ev):

   -32.9033 -32.9033 -32.8886 -32.8885 -32.0512 -32.0512 -32.0441 -32.0441
   -13.7479 -13.7353 -13.7276 -13.7147 -12.9631 -12.9564 -12.9516 -12.9454
    -9.6704  -9.6673  -9.6084  -9.6078  -9.4696  -9.4661  -9.3972  -9.3964
    -8.8553  -8.8529  -8.8014  -8.8002  -8.6243  -8.6211  -8.5983  -8.5975
     5.1641   5.1739   5.2403   5.2510   5.8315   5.8355   5.8783   5.8829
     6.7135   6.7165   6.7618   6.7635   7.8745   7.8844   7.8973   7.9079
    10.4027  10.4167  10.4385  10.4533  11.5780  11.5857  11.6778  11.6856
    13.2343  13.2445  13.2622  13.2702  13.4854  13.4913

          k = 0.2500-1.0104 0.0000 (  5254 PWs)   bands (ev):

   -32.8913 -32.8913 -32.8765 -32.8765 -32.0382 -32.0382 -32.0311 -32.0311
   -13.7849 -13.7849 -13.7579 -13.7578 -12.9936 -12.9935 -12.9820 -12.9819
    -9.7499  -9.7497  -9.6957  -9.6954  -9.4470  -9.4459  -9.4355  -9.4344
    -8.9807  -8.9775  -8.9674  -8.9646  -8.6603  -8.6581  -8.6470  -8.6447
     4.7537   4.7543   4.9040   4.9044   6.0837   6.0913   6.1157   6.1228
     6.9118   6.9161   6.9834   6.9884   8.5772   8.5853   8.6271   8.6363
    10.5099  10.5191  10.5551  10.5645  11.9208  11.9281  11.9903  11.9984
    12.3337  12.3619  12.4485  12.4713  14.9912  15.0112

          k = 0.2500-1.0104 0.3132 (  5260 PWs)   bands (ev):

   -32.8911 -32.8911 -32.8764 -32.8764 -32.0383 -32.0383 -32.0312 -32.0312
   -13.7885 -13.7873 -13.7590 -13.7577 -13.0021 -13.0000 -12.9867 -12.9846
    -9.7735  -9.7722  -9.6980  -9.6976  -9.4815  -9.4809  -9.4282  -9.4262
    -8.9577  -8.9565  -8.9182  -8.9156  -8.6563  -8.6542  -8.6341  -8.6317
     4.9888   4.9915   5.1109   5.1138   6.0602   6.0658   6.0984   6.1043
     6.9716   6.9813   7.1335   7.1417   8.0429   8.0587   8.1248   8.1430
    10.2911  10.2980  10.3735  10.3795  11.7003  11.7023  11.7893  11.7909
    12.5639  12.5939  12.6639  12.6909  14.6543  14.6644

          k = 0.2500-1.0104-0.6263 (  5260 PWs)   bands (ev):

   -32.8910 -32.8910 -32.8762 -32.8762 -32.0384 -32.0384 -32.0313 -32.0313
   -13.7905 -13.7904 -13.7591 -13.7591 -13.0073 -13.0072 -12.9907 -12.9906
    -9.7927  -9.7925  -9.6990  -9.6987  -9.5130  -9.5120  -9.4224  -9.4214
    -8.9382  -8.9376  -8.8669  -8.8663  -8.6579  -8.6572  -8.6186  -8.6183
     5.5393   5.5495   5.6355   5.6454   5.8169   5.8258   5.9342   5.9401
     6.8549   6.8647   6.9022   6.9102   7.6953   7.7108   7.7236   7.7389
    10.0626  10.0689  10.0915  10.0978  11.6389  11.6432  11.7368  11.7403
    13.2379  13.2490  13.2904  13.3014  13.6853  13.6914

          k = 0.2500-0.4330 0.0000 (  5251 PWs)   bands (ev):

   -32.9161 -32.9161 -32.8772 -32.8772 -32.0642 -32.0642 -32.0292 -32.0292
   -13.8044 -13.7633 -13.6912 -13.6846 -13.0116 -12.9952 -12.8743 -12.8715
    -9.7667  -9.6481  -9.6045  -9.5865  -9.5111  -9.4956  -9.3388  -9.3329
    -8.9685  -8.9235  -8.7725  -8.7621  -8.6853  -8.6553  -8.5260  -8.5006
     3.5501   3.5786   4.9435   5.2231   5.7799   5.8033   6.4100   6.4567
     6.7690   6.8895   7.2618   7.2650   8.4510   8.4987   9.4529   9.4785
    10.4054  10.4440  11.4182  11.4244  11.6789  11.7492  12.3252  12.3929
    12.7885  12.8285  12.8882  12.9709  13.3413  13.4254

          k = 0.2500-0.4330 0.3132 (  5259 PWs)   bands (ev):

   -32.9154 -32.9154 -32.8771 -32.8771 -32.0651 -32.0651 -32.0292 -32.0292
   -13.8092 -13.7639 -13.6834 -13.6760 -13.0193 -12.9979 -12.8849 -12.8797
    -9.8058  -9.6452  -9.5655  -9.5533  -9.5434  -9.4956  -9.3511  -9.3244
    -8.9265  -8.8980  -8.7665  -8.7292  -8.7203  -8.6988  -8.5280  -8.5096
     3.9237   3.9517   5.2440   5.4988   5.7509   5.7781   6.4077   6.4369
     6.8664   6.9993   7.0662   7.0708   7.7672   7.8239   8.8673   8.8854
    10.4500  10.5037  11.0865  11.0997  11.2434  11.3439  12.1426  12.2049
    12.8012  12.8122  12.8343  12.8586  13.4730  13.5542

          k = 0.2500-0.4330-0.6263 (  5266 PWs)   bands (ev):

   -32.9147 -32.9147 -32.8770 -32.8770 -32.0659 -32.0659 -32.0292 -32.0292
   -13.8139 -13.7647 -13.6753 -13.6674 -13.0266 -13.0008 -12.8947 -12.8891
    -9.8385  -9.6450  -9.5882  -9.5199  -9.5047  -9.4818  -9.3681  -9.3247
    -8.9236  -8.8367  -8.7703  -8.7676  -8.7413  -8.6802  -8.5301  -8.5234
     4.5830   4.6126   5.3328   5.3504   5.8231   6.0708   6.2969   6.3309
     6.8500   6.9200   7.0464   7.0716   7.1363   7.1765   8.2457   8.2631
    10.3463  10.4145  10.9888  11.0007  11.0734  11.1812  11.7747  11.8461
    12.9387  12.9526  13.0234  13.0936  13.2761  13.2939

          k =-0.5000-0.2887 0.0000 (  5254 PWs)   bands (ev):

   -32.9167 -32.9167 -32.9021 -32.9021 -32.0624 -32.0624 -32.0553 -32.0553
   -13.7084 -13.7084 -13.6957 -13.6957 -12.8965 -12.8965 -12.8898 -12.8898
    -9.6192  -9.6192  -9.6002  -9.6002  -9.3706  -9.3706  -9.3589  -9.3589
    -8.7462  -8.7462  -8.7233  -8.7233  -8.5291  -8.5291  -8.5185  -8.5185
     3.7748   3.7748   3.7847   3.7847   5.8894   5.8894   5.9050   5.9050
     7.1137   7.1137   7.1410   7.1410   9.2637   9.2637   9.2699   9.2699
    11.2755  11.2755  11.2946  11.2946  12.1298  12.1298  12.1513  12.1513
    12.8916  12.8916  12.9022  12.9022  13.7366  13.7366

          k =-0.5000-0.2887 0.3132 (  5256 PWs)   bands (ev):

   -32.9161 -32.9161 -32.9015 -32.9015 -32.0631 -32.0631 -32.0561 -32.0561
   -13.7035 -13.7007 -13.6908 -13.6879 -12.9077 -12.9029 -12.9006 -12.8959
    -9.5925  -9.5877  -9.5778  -9.5749  -9.3804  -9.3696  -9.3601  -9.3481
    -8.7837  -8.7664  -8.7471  -8.7386  -8.5461  -8.5383  -8.5299  -8.5202
     4.0894   4.1038   4.1676   4.1757   5.8424   5.8485   5.9050   5.9390
     6.9364   6.9424   6.9603   6.9897   8.6808   8.6979   8.7186   8.7440
    10.8781  10.9011  10.9746  10.9987  11.9475  12.0245  12.1195  12.1266
    12.8752  12.8828  13.0707  13.0767  13.7620  13.7633

          k =-0.5000-0.2887-0.6263 (  5256 PWs)   bands (ev):

   -32.9155 -32.9155 -32.9008 -32.9008 -32.0638 -32.0638 -32.0568 -32.0568
   -13.6958 -13.6958 -13.6828 -13.6828 -12.9144 -12.9144 -12.9068 -12.9068
    -9.5581  -9.5581  -9.5471  -9.5471  -9.3752  -9.3752  -9.3629  -9.3629
    -8.7833  -8.7833  -8.7778  -8.7778  -8.5495  -8.5495  -8.5414  -8.5414
     4.7537   4.7537   4.7665   4.7665   5.4736   5.4736   5.5024   5.5024
     6.9409   6.9409   6.9671   6.9671   8.1303   8.1303   8.1560   8.1560
    10.7684  10.7684  10.7998  10.7998  11.7349  11.7349  11.8008  11.8008
    13.1886  13.1886  13.1966  13.1966  13.4730  13.4730

          k =-0.5000 0.2887 0.0000 (  5253 PWs)   bands (ev):

   -32.9114 -32.9113 -32.8819 -32.8819 -32.0594 -32.0594 -32.0341 -32.0341
   -13.7869 -13.7532 -13.7027 -13.7002 -12.9920 -12.9786 -12.8936 -12.8922
    -9.7307  -9.6395  -9.6185  -9.6017  -9.4961  -9.4790  -9.3665  -9.3629
    -8.9331  -8.9199  -8.7447  -8.7231  -8.7135  -8.6989  -8.5292  -8.5215
     3.7791   3.7854   4.7648   4.9802   5.8929   5.9068   6.4526   6.5157
     6.6303   6.7072   7.1139   7.1325   8.5510   8.6305   9.2634   9.2676
    10.5505  10.5831  11.2698  11.2858  11.8276  11.8808  12.1449  12.1506
    12.3372  12.3808  12.8949  12.9027  13.7371  13.7430

          k =-0.5000 0.2887 0.3132 (  5250 PWs)   bands (ev):

   -32.9108 -32.9108 -32.8818 -32.8818 -32.0601 -32.0601 -32.0343 -32.0343
   -13.7900 -13.7528 -13.6975 -13.6932 -12.9999 -12.9820 -12.9027 -12.9003
    -9.7617  -9.6391  -9.5918  -9.5783  -9.5234  -9.4664  -9.3723  -9.3558
    -8.9153  -8.8803  -8.7661  -8.7460  -8.7126  -8.6778  -8.5417  -8.5291
     4.0903   4.1048   5.0674   5.2646   5.9050   5.9390   6.4103   6.4558
     6.6826   6.7787   6.9594   6.9899   7.9896   8.0320   8.7202   8.7450
    10.4635  10.5197  10.8709  10.8938  11.4816  11.5775  12.1162  12.1233
    12.4542  12.5097  13.0734  13.0795  13.7600  13.7636

          k =-0.5000 0.2887-0.6263 (  5272 PWs)   bands (ev):

   -32.9102 -32.9102 -32.8816 -32.8816 -32.0608 -32.0608 -32.0344 -32.0344
   -13.7931 -13.7525 -13.6892 -13.6886 -13.0073 -12.9859 -12.9121 -12.9087
    -9.7879  -9.6389  -9.5588  -9.5535  -9.5489  -9.4514  -9.3716  -9.3660
    -8.9085  -8.8250  -8.7802  -8.7785  -8.7201  -8.6562  -8.5477  -8.5457
     4.7598   4.7660   5.4736   5.5022   5.6294   5.8028   6.2029   6.2920
     6.5653   6.6786   6.9427   6.9659   7.5416   7.5480   8.1293   8.1523
    10.2917  10.3297  10.7700  10.7919  11.3129  11.4419  11.7349  11.8002
    12.9291  12.9605  13.1900  13.1928  13.4759  13.4858

          k =-0.5000-1.4434 0.0000 (  5252 PWs)   bands (ev):

   -32.8913 -32.8913 -32.8765 -32.8765 -32.0382 -32.0382 -32.0311 -32.0311
   -13.7876 -13.7876 -13.7515 -13.7515 -12.9926 -12.9926 -12.9776 -12.9776
    -9.7314  -9.7314  -9.6403  -9.6403  -9.4969  -9.4969  -9.4772  -9.4772
    -8.9330  -8.9330  -8.9174  -8.9174  -8.7162  -8.7162  -8.7002  -8.7002
     4.7671   4.7671   4.9823   4.9823   6.4499   6.4499   6.5153   6.5153
     6.6325   6.6325   6.7093   6.7093   8.5451   8.5451   8.6277   8.6277
    10.5541  10.5541  10.5876  10.5876  11.8289  11.8289  11.8836  11.8836
    12.3361  12.3361  12.3872  12.3872  14.7349  14.7349

          k =-0.5000-1.4434 0.3132 (  5244 PWs)   bands (ev):

   -32.8911 -32.8911 -32.8764 -32.8764 -32.0383 -32.0383 -32.0312 -32.0312
   -13.7911 -13.7902 -13.7517 -13.7508 -13.0011 -12.9995 -12.9819 -12.9804
    -9.7633  -9.7618  -9.6404  -9.6397  -9.5254  -9.5216  -9.4685  -9.4625
    -8.9142  -8.9140  -8.8797  -8.8793  -8.7162  -8.7112  -8.6813  -8.6772
     5.0689   5.0704   5.2651   5.2665   6.3946   6.4162   6.4430   6.4646
     6.6793   6.6818   6.7766   6.7833   7.9917   7.9969   8.0360   8.0404
    10.4624  10.4692  10.5188  10.5256  11.4777  11.4804  11.5737  11.5774
    12.4458  12.4657  12.5056  12.5225  14.5400  14.5475

          k =-0.5000-1.4434-0.6263 (  5288 PWs)   bands (ev):

   -32.8910 -32.8910 -32.8762 -32.8762 -32.0384 -32.0384 -32.0313 -32.0313
   -13.7937 -13.7937 -13.7511 -13.7511 -13.0076 -13.0076 -12.9851 -12.9851
    -9.7885  -9.7885  -9.6399  -9.6399  -9.5542  -9.5542  -9.4510  -9.4510
    -8.9069  -8.9069  -8.8237  -8.8237  -8.7219  -8.7219  -8.6575  -8.6575
     5.6309   5.6309   5.8031   5.8031   6.2015   6.2015   6.2927   6.2927
     6.5635   6.5635   6.6756   6.6756   7.5447   7.5447   7.5533   7.5533
    10.2945  10.2945  10.3338  10.3338  11.3088  11.3088  11.4389  11.4389
    12.9304  12.9304  12.9659  12.9659  13.5441  13.5441

          k = 0.0000-0.5773 0.3132 (  5250 PWs)   bands (ev):

   -32.9108 -32.9108 -32.8818 -32.8818 -32.0601 -32.0601 -32.0343 -32.0343
   -13.7900 -13.7528 -13.6976 -13.6932 -13.0000 -12.9820 -12.9027 -12.9003
    -9.7615  -9.6389  -9.5920  -9.5780  -9.5235  -9.4666  -9.3728  -9.3557
    -8.9152  -8.8805  -8.7665  -8.7456  -8.7127  -8.6779  -8.5417  -8.5287
     4.0911   4.1064   5.0681   5.2650   5.9050   5.9386   6.4076   6.4521
     6.6865   6.7840   6.9494   6.9831   7.9875   8.0276   8.7317   8.7581
    10.4625  10.5178  10.8658  10.8889  11.4793  11.5757  12.1251  12.1319
    12.4601  12.5147  13.0715  13.0775  13.7612  13.7647

          k =-0.2500-0.1443 0.3132 (  5261 PWs)   bands (ev):

   -32.9279 -32.9278 -32.8897 -32.8896 -32.0774 -32.0774 -32.0417 -32.0417
   -13.7543 -13.7487 -13.6436 -13.6435 -12.9714 -12.9650 -12.8390 -12.8359
    -9.7015  -9.7002  -9.5348  -9.5285  -9.4263  -9.4082  -9.2302  -9.2232
    -8.9202  -8.8872  -8.6590  -8.6447  -8.5937  -8.5790  -8.4291  -8.4227
     3.4338   3.4348   4.7001   4.7200   5.3159   5.3279   6.0261   6.0435
     6.9165   7.0615   7.4722   7.4756   8.2814   8.3710   9.3830   9.3976
    10.3744  10.4435  11.6319  11.6425  11.9354  12.0119  12.4600  12.4958
    12.5372  12.5502  12.8250  12.8321  13.1708  13.2055

          k =-0.2500-0.7217 0.3132 (  5250 PWs)   bands (ev):

   -32.9037 -32.9036 -32.8889 -32.8889 -32.0507 -32.0507 -32.0437 -32.0437
   -13.7492 -13.7371 -13.7301 -13.7177 -12.9554 -12.9500 -12.9439 -12.9390
    -9.6668  -9.6641  -9.6202  -9.6176  -9.4555  -9.4517  -9.4090  -9.4059
    -8.8651  -8.8567  -8.8217  -8.8176  -8.6144  -8.6128  -8.5899  -8.5880
     4.5637   4.6397   4.6419   4.7264   6.1661   6.1802   6.2197   6.2428
     6.6873   6.7129   6.7200   6.7915   8.3208   8.3566   8.3849   8.4110
    10.5893  10.6288  10.6535  10.7071  11.8249  11.9223  11.9379  11.9834
    12.4695  12.5119  12.5190  12.5477  14.0278  14.0857

          k =-0.2500 1.0104 0.3132 (  5260 PWs)   bands (ev):

   -32.8911 -32.8911 -32.8764 -32.8764 -32.0383 -32.0383 -32.0312 -32.0312
   -13.7884 -13.7872 -13.7589 -13.7577 -13.0024 -13.0005 -12.9863 -12.9843
    -9.7731  -9.7718  -9.6966  -9.6963  -9.4837  -9.4824  -9.4268  -9.4231
    -8.9639  -8.9618  -8.9169  -8.9142  -8.6552  -8.6537  -8.6331  -8.6317
     5.0695   5.0709   5.2102   5.2119   6.0051   6.0135   6.0357   6.0430
     6.9292   6.9403   7.0699   7.0823   7.9862   7.9919   8.0745   8.0795
    10.3032  10.3124  10.3997  10.4086  11.7907  11.7955  11.9195  11.9252
    12.5395  12.5450  12.6041  12.6126  14.8660  14.8744

          k =-0.2500 0.4330 0.3132 (  5259 PWs)   bands (ev):

   -32.9154 -32.9154 -32.8771 -32.8771 -32.0651 -32.0651 -32.0292 -32.0292
   -13.8092 -13.7640 -13.6834 -13.6760 -13.0193 -12.9979 -12.8850 -12.8797
    -9.8058  -9.6452  -9.5654  -9.5534  -9.5434  -9.4955  -9.3511  -9.3244
    -8.9266  -8.8979  -8.7666  -8.7292  -8.7202  -8.6987  -8.5280  -8.5096
     3.9232   3.9513   5.2433   5.4979   5.7495   5.7766   6.4110   6.4422
     6.8663   6.9972   7.0731   7.0767   7.7657   7.8194   8.8605   8.8784
    10.4470  10.5007  11.0915  11.1047  11.2482  11.3494  12.1359  12.1987
    12.8010  12.8123  12.8340  12.8586  13.4730  13.5541

          k = 0.5000-0.2887 0.3132 (  5250 PWs)   bands (ev):

   -32.9108 -32.9108 -32.8818 -32.8818 -32.0601 -32.0601 -32.0343 -32.0343
   -13.7901 -13.7528 -13.6959 -13.6943 -12.9999 -12.9820 -12.9051 -12.8981
    -9.7620  -9.6392  -9.5859  -9.5797  -9.5235  -9.4660  -9.3773  -9.3522
    -8.9156  -8.8811  -8.7818  -8.7376  -8.7113  -8.6778  -8.5456  -8.5237
     4.1716   4.1797   5.0678   5.2640   5.8456   5.8529   6.4032   6.4523
     6.6769   6.7813   6.9319   6.9380   8.0013   8.0425   8.6774   8.6953
    10.4610  10.5165  10.9727  10.9961  11.4810  11.5766  11.9547  12.0302
    12.4539  12.5112  12.8753  12.8828  13.8531  13.8726

     the Fermi energy is    11.4464 ev

!    total energy              =   -2248.21582333 Ry
     Harris-Foulkes estimate   =   -2248.21582288 Ry
     estimated scf accuracy    <          1.5E-09 Ry

     total all-electron energy =    -90252.559200 Ry

     The total energy is the sum of the following terms:

     one-electron contribution =     -30.38007520 Ry
     hartree contribution      =      39.59821566 Ry
     xc contribution           =    -257.79290308 Ry
     ewald contribution        =    -251.56658524 Ry
     one-center paw contrib.   =   -1748.07279717 Ry
     smearing contrib. (-TS)   =      -0.00167830 Ry

     convergence has been achieved in  11 iterations

     Forces acting on atoms (cartesian axes, Ry/au):

     atom    1 type  1   force =     0.00046895    0.00000230   -0.00041185
     atom    2 type  1   force =    -0.00052705    0.00003311   -0.00006307
     atom    3 type  1   force =     0.00011045    0.00007139    0.00029719
     atom    4 type  1   force =    -0.00005398   -0.00012725   -0.00061679
     atom    5 type  2   force =    -0.00006886    0.00040104    0.00026849
     atom    6 type  2   force =     0.00012742   -0.00016182   -0.00007637
     atom    7 type  2   force =    -0.00004317   -0.00053546   -0.00022321
     atom    8 type  2   force =    -0.00000320   -0.00026917    0.00032360
     atom    9 type  2   force =    -0.00000567    0.00060311    0.00027328
     atom   10 type  2   force =    -0.00013773    0.00019455   -0.00005629
     atom   11 type  2   force =    -0.00014892    0.00032614   -0.00027030
     atom   12 type  2   force =     0.00028176   -0.00053795    0.00055532

     Total force =     0.001832     Total SCF correction =     0.000087


     Computing stress (Cartesian axis) and pressure

     Message from routine stres:
     noncollinear stress + GGA not implemented

     Writing output data file 2305.save
 
     init_run     :      6.21s CPU      6.77s WALL (       2 calls)
     electrons    :   1651.70s CPU   1731.82s WALL (      33 calls)
     update_pot   :      9.43s CPU     12.15s WALL (      31 calls)
     forces       :     71.63s CPU     71.72s WALL (      33 calls)

     Called by init_run:
     wfcinit      :      5.23s CPU      5.53s WALL (       2 calls)
     potinit      :      0.37s CPU      0.42s WALL (       2 calls)

     Called by electrons:
     c_bands      :   1407.98s CPU   1443.99s WALL (     268 calls)
     sum_band     :    180.87s CPU    185.51s WALL (     268 calls)
     v_of_rho     :      0.99s CPU      1.00s WALL (     295 calls)
     newd         :     25.77s CPU     25.83s WALL (     295 calls)
     PAW_pot      :     46.23s CPU     46.81s WALL (     326 calls)
     mix_rho      :      1.09s CPU      1.11s WALL (     268 calls)

     Called by c_bands:
     init_us_2    :      5.29s CPU      5.41s WALL (   21672 calls)
     cegterg      :   1294.73s CPU   1321.43s WALL (    9648 calls)

     Called by sum_band:
     sum_band:bec :     47.57s CPU     47.62s WALL (   10764 calls)
     addusdens    :      7.57s CPU      7.62s WALL (     268 calls)

     Called by *egterg:
     h_psi        :    686.57s CPU    712.01s WALL (   45464 calls)
     s_psi        :     79.44s CPU     79.71s WALL (   45464 calls)
     g_psi        :      4.29s CPU      4.31s WALL (   35744 calls)
     cdiaghg      :    319.79s CPU    320.32s WALL (   44060 calls)

     Called by h_psi:
     h_psi:pot    :    680.21s CPU    705.58s WALL (   45464 calls)
     h_psi:calbec :     51.97s CPU     52.87s WALL (   45464 calls)
     vloc_psi     :    544.83s CPU    569.07s WALL (   45464 calls)
     add_vuspsi   :     83.12s CPU     83.40s WALL (   45464 calls)

     General routines
     calbec       :     79.89s CPU     81.12s WALL (   60980 calls)
     fft          :      0.74s CPU      0.82s WALL (    5810 calls)
     fftw         :    549.33s CPU    572.65s WALL ( 7895900 calls)
     davcio       :      0.01s CPU      0.03s WALL (      72 calls)
 
     Parallel routines
     fft_scatter  :    257.13s CPU    270.99s WALL ( 7901710 calls)
 
     PWSCF        : 29m16.74s CPU    32m 1.44s WALL

 
   This run was terminated on:  17:36:27  13Oct2022            

=------------------------------------------------------------------------------=
   JOB DONE.
=------------------------------------------------------------------------------=
Removing 2305 from /home/shaharpit/tmp
