
     Program PWSCF v.6.1 (svn rev. 13369) starts on 13Oct2022 at 17: 4:20 

     This program is part of the open-source Quantum ESPRESSO suite
     for quantum simulation of materials; please cite
         "P. Giannozzi et al., J. Phys.:Condens. Matter 21 395502 (2009);
          URL http://www.quantum-espresso.org", 
     in publications or presentations arising from this work. More details at
     http://www.quantum-espresso.org/quote

     Parallel version (MPI), running on    16 processors
     R & G space division:  proc/nbgrp/npool/nimage =      16
     Reading input from ./hcp_125.in

     Current dimensions of program PWSCF are:
     Max number of different atomic species (ntypx) = 10
     Max number of k-points (npk) =  40000
     Max angular momentum in pseudopotentials (lmaxx) =  3
               file Gd.rel-pbe-spdn-kjpaw_psl.1.0.0.UPF: wavefunction(s)  5P 5P renormalized
               file H.pbe-kjpaw_psl.0.1.UPF: wavefunction(s)  1S renormalized

     Subspace diagonalization in iterative solution of the eigenvalue problem:
     a serial algorithm will be used

 
     Parallelization info
     --------------------
     sticks:   dense  smooth     PW     G-vecs:    dense   smooth      PW
     Min          80      80     24                 2632     2632     442
     Max          81      81     25                 2637     2637     447
     Sum        1287    1287    397                42147    42147    7103
 


     bravais-lattice index     =            0
     lattice parameter (alat)  =      13.6588  a.u.
     unit-cell volume          =     880.8636 (a.u.)^3
     number of atoms/cell      =           14
     number of atomic types    =            2
     number of electrons       =        54.00
     number of Kohn-Sham states=           64
     kinetic-energy cutoff     =      50.0000  Ry
     charge density cutoff     =     200.0000  Ry
     convergence threshold     =      1.0E-06
     mixing beta               =       0.7000
     number of iterations used =            8  plain     mixing
     Exchange-correlation      =  SLA  PW   PBX  PBC ( 1  4  3  4 0 0)
     nstep                     =          150

     Non magnetic calculation with spin-orbit


     celldm(1)=  13.658752  celldm(2)=   0.000000  celldm(3)=   0.000000
     celldm(4)=   0.000000  celldm(5)=   0.000000  celldm(6)=   0.000000

     crystal axes: (cart. coord. in units of alat)
               a(1) = (   1.000000   0.000000   0.000000 )  
               a(2) = (  -0.250003   0.433017   0.000000 )  
               a(3) = (   0.000000   0.000000   0.798309 )  

     reciprocal axes: (cart. coord. in units 2 pi/alat)
               b(1) = (  1.000000  0.577353  0.000000 )  
               b(2) = (  0.000000  2.309381  0.000000 )  
               b(3) = (  0.000000  0.000000  1.252647 )  


     PseudoPot. # 1 for Gd read from file:
     /home/shaharpit/MeamGdH/dft/qe_potentials/Gd.rel-pbe-spdn-kjpaw_psl.1.0.0.UPF
     MD5 check sum: cf50ec46d1536b4a0251694df1946a53
     Pseudo is Projector augmented-wave + core cor, Zval = 11.0
     Generated using "atomic" code by A. Dal Corso  v.6.2.2
     Shape of augmentation charge: PSQ
     Using radial grid of 1263 points, 10 beta functions with: 
                l(1) =   0
                l(2) =   0
                l(3) =   1
                l(4) =   1
                l(5) =   1
                l(6) =   1
                l(7) =   2
                l(8) =   2
                l(9) =   2
               l(10) =   2
     Q(r) pseudized with 0 coefficients 


     PseudoPot. # 2 for  H read from file:
     /home/shaharpit/MeamGdH/dft/qe_potentials/H.pbe-kjpaw_psl.0.1.UPF
     MD5 check sum: fbb168fef676c0aaadbafd73f5b1efa8
     Pseudo is Projector augmented-wave, Zval =  1.0
     Generated using "atomic" code by A. Dal Corso  v.5.0.2 svn rev. 9415
     Shape of augmentation charge: PSQ
     Using radial grid of  929 points,  2 beta functions with: 
                l(1) =   0
                l(2) =   0
     Q(r) pseudized with 0 coefficients 


     atomic species   valence    mass     pseudopotential
        Gd            11.00   157.25000     Gd( 1.00)
        H              1.00     1.00794      H( 1.00)

     No symmetry found



   Cartesian axes

     site n.     atom                  positions (alat units)
         1           Gd  tau(   1) = (   0.2499738   0.1443244   0.5987320  )
         2           Gd  tau(   2) = (   0.7499738   0.1443244   0.5987320  )
         3           Gd  tau(   3) = (   0.0000227   0.2886921   0.1995773  )
         4           Gd  tau(   4) = (   0.5000227   0.2886921   0.1995773  )
         5           H   tau(   5) = (   0.2603489   0.1351878   0.7734021  )
         6           H   tau(   6) = (   0.7141741   0.1153989   0.7679736  )
         7           H   tau(   7) = (   0.7240968   0.3952575   0.4070579  )
         8           H   tau(   8) = (   0.2676216   0.4208487   0.3987555  )
         9           H   tau(   9) = (  -0.0020534   0.4258284   0.2957736  )
        10           H   tau(  10) = (   0.7594248   0.0214343   0.2383752  )
        11           H   tau(  11) = (  -0.0314513   0.1687898   0.6524582  )
        12           H   tau(  12) = (   0.5425737   0.1587005   0.6760083  )
        13           H   tau(  13) = (   0.7480222   0.3541642   0.0562808  )
        14           H   tau(  14) = (   0.2942721   0.3585810   0.0582766  )

     number of k points=    36  gaussian smearing, width (Ry)=  0.0100
                       cart. coord. in units 2pi/alat
        k(    1) = (   0.0000000   0.0000000   0.0000000), wk =   0.0156250
        k(    2) = (   0.0000000   0.0000000   0.3131618), wk =   0.0312500
        k(    3) = (   0.0000000   0.0000000  -0.6263236), wk =   0.0156250
        k(    4) = (   0.0000000   0.5773452   0.0000000), wk =   0.0312500
        k(    5) = (   0.0000000   0.5773452   0.3131618), wk =   0.0312500
        k(    6) = (   0.0000000   0.5773452  -0.6263236), wk =   0.0312500
        k(    7) = (   0.0000000  -1.1546904   0.0000000), wk =   0.0156250
        k(    8) = (   0.0000000  -1.1546904   0.3131618), wk =   0.0312500
        k(    9) = (   0.0000000  -1.1546904  -0.6263236), wk =   0.0156250
        k(   10) = (   0.2500000   0.1443383   0.0000000), wk =   0.0312500
        k(   11) = (   0.2500000   0.1443383   0.3131618), wk =   0.0312500
        k(   12) = (   0.2500000   0.1443383  -0.6263236), wk =   0.0312500
        k(   13) = (   0.2500000   0.7216835   0.0000000), wk =   0.0312500
        k(   14) = (   0.2500000   0.7216835   0.3131618), wk =   0.0312500
        k(   15) = (   0.2500000   0.7216835  -0.6263236), wk =   0.0312500
        k(   16) = (   0.2500000  -1.0103521   0.0000000), wk =   0.0312500
        k(   17) = (   0.2500000  -1.0103521   0.3131618), wk =   0.0312500
        k(   18) = (   0.2500000  -1.0103521  -0.6263236), wk =   0.0312500
        k(   19) = (   0.2500000  -0.4330069   0.0000000), wk =   0.0312500
        k(   20) = (   0.2500000  -0.4330069   0.3131618), wk =   0.0312500
        k(   21) = (   0.2500000  -0.4330069  -0.6263236), wk =   0.0312500
        k(   22) = (  -0.5000000  -0.2886766   0.0000000), wk =   0.0156250
        k(   23) = (  -0.5000000  -0.2886766   0.3131618), wk =   0.0312500
        k(   24) = (  -0.5000000  -0.2886766  -0.6263236), wk =   0.0156250
        k(   25) = (  -0.5000000   0.2886686   0.0000000), wk =   0.0312500
        k(   26) = (  -0.5000000   0.2886686   0.3131618), wk =   0.0312500
        k(   27) = (  -0.5000000   0.2886686  -0.6263236), wk =   0.0312500
        k(   28) = (  -0.5000000  -1.4433670   0.0000000), wk =   0.0156250
        k(   29) = (  -0.5000000  -1.4433670   0.3131618), wk =   0.0312500
        k(   30) = (  -0.5000000  -1.4433670  -0.6263236), wk =   0.0156250
        k(   31) = (   0.0000000  -0.5773452   0.3131618), wk =   0.0312500
        k(   32) = (  -0.2500000  -0.1443383   0.3131618), wk =   0.0312500
        k(   33) = (  -0.2500000  -0.7216835   0.3131618), wk =   0.0312500
        k(   34) = (  -0.2500000   1.0103521   0.3131618), wk =   0.0312500
        k(   35) = (  -0.2500000   0.4330069   0.3131618), wk =   0.0312500
        k(   36) = (   0.5000000  -0.2886686   0.3131618), wk =   0.0312500

     Dense  grid:    42147 G-vectors     FFT dimensions: (  64,  32,  50)

     Estimated max dynamical RAM per process >      36.92MB

     Estimated total allocated dynamical RAM >     590.79MB

     Initial potential from superposition of free atoms

     starting charge   53.92372, renormalised to   54.00000
     Starting wfc are  124 randomized atomic wfcs
     Checking if some PAW data can be deallocated... 

     total cpu time spent up to now is        4.5 secs

     per-process dynamical memory:    95.6 Mb

     Self-consistent Calculation

     iteration #  1     ecut=    50.00 Ry     beta=0.70
     Davidson diagonalization with overlap
     ethr =  1.00E-02,  avg # of iterations =  2.0

     total cpu time spent up to now is       10.6 secs

     total energy              =   -2248.24998515 Ry
     Harris-Foulkes estimate   =   -2248.89249728 Ry
     estimated scf accuracy    <       1.12415337 Ry

     iteration #  2     ecut=    50.00 Ry     beta=0.70
     Davidson diagonalization with overlap
     ethr =  2.08E-03,  avg # of iterations =  3.5

     total cpu time spent up to now is       17.5 secs

     total energy              =   -2248.08547371 Ry
     Harris-Foulkes estimate   =   -2248.75675380 Ry
     estimated scf accuracy    <       1.31183303 Ry

     iteration #  3     ecut=    50.00 Ry     beta=0.70
     Davidson diagonalization with overlap
     ethr =  2.08E-03,  avg # of iterations =  3.8

     total cpu time spent up to now is       24.5 secs

     total energy              =   -2248.42333956 Ry
     Harris-Foulkes estimate   =   -2248.67527471 Ry
     estimated scf accuracy    <       0.78089234 Ry

     iteration #  4     ecut=    50.00 Ry     beta=0.70
     Davidson diagonalization with overlap
     ethr =  1.45E-03,  avg # of iterations =  2.8

     total cpu time spent up to now is       30.2 secs

     total energy              =   -2248.51917591 Ry
     Harris-Foulkes estimate   =   -2248.53771829 Ry
     estimated scf accuracy    <       0.04483370 Ry

     iteration #  5     ecut=    50.00 Ry     beta=0.70
     Davidson diagonalization with overlap
     ethr =  8.30E-05,  avg # of iterations =  4.6

     total cpu time spent up to now is       37.7 secs

     total energy              =   -2248.52861557 Ry
     Harris-Foulkes estimate   =   -2248.53110781 Ry
     estimated scf accuracy    <       0.00670875 Ry

     iteration #  6     ecut=    50.00 Ry     beta=0.70
     Davidson diagonalization with overlap
     ethr =  1.24E-05,  avg # of iterations =  4.2

     total cpu time spent up to now is       44.7 secs

     total energy              =   -2248.52967410 Ry
     Harris-Foulkes estimate   =   -2248.53037680 Ry
     estimated scf accuracy    <       0.00178728 Ry

     iteration #  7     ecut=    50.00 Ry     beta=0.70
     Davidson diagonalization with overlap
     ethr =  3.31E-06,  avg # of iterations =  3.0

     total cpu time spent up to now is       51.0 secs

     total energy              =   -2248.53001480 Ry
     Harris-Foulkes estimate   =   -2248.53009220 Ry
     estimated scf accuracy    <       0.00018297 Ry

     iteration #  8     ecut=    50.00 Ry     beta=0.70
     Davidson diagonalization with overlap
     ethr =  3.39E-07,  avg # of iterations =  3.2

     total cpu time spent up to now is       57.2 secs

     total energy              =   -2248.53004500 Ry
     Harris-Foulkes estimate   =   -2248.53008464 Ry
     estimated scf accuracy    <       0.00010085 Ry

     iteration #  9     ecut=    50.00 Ry     beta=0.70
     Davidson diagonalization with overlap
     ethr =  1.87E-07,  avg # of iterations =  2.8

     total cpu time spent up to now is       63.1 secs

     total energy              =   -2248.53006409 Ry
     Harris-Foulkes estimate   =   -2248.53006633 Ry
     estimated scf accuracy    <       0.00000569 Ry

     iteration # 10     ecut=    50.00 Ry     beta=0.70
     Davidson diagonalization with overlap
     ethr =  1.05E-08,  avg # of iterations =  2.6

     total cpu time spent up to now is       68.9 secs

     End of self-consistent calculation

          k = 0.0000 0.0000 0.0000 (  5289 PWs)   bands (ev):

   -33.0488 -33.0488 -32.6137 -32.6137 -32.5600 -32.5600 -31.8689 -31.8689
   -14.2219 -14.2219 -13.8137 -13.8137 -13.6791 -13.6791 -13.1656 -13.1656
   -10.4651 -10.4651 -10.0896 -10.0896  -9.9503  -9.9503  -9.5554  -9.5554
    -9.2533  -9.2533  -8.9397  -8.9397  -8.7218  -8.7218  -8.3153  -8.3153
     3.1799   3.1799   5.6765   5.6765   6.2120   6.2120   6.4361   6.4361
     6.7045   6.7045   7.6067   7.6067   8.3559   8.3559   8.8524   8.8524
     9.2230   9.2230  10.0076  10.0076  10.6577  10.6577  11.5733  11.5733
    12.4141  12.4141  12.5824  12.5824  13.1299  13.1299  13.5241  13.5241

          k = 0.0000 0.0000 0.3132 (  5279 PWs)   bands (ev):

   -33.0475 -33.0474 -32.6129 -32.6129 -32.5614 -32.5614 -31.8698 -31.8698
   -14.2170 -14.2025 -13.8182 -13.7809 -13.7079 -13.6783 -13.1847 -13.1727
   -10.4813 -10.4320 -10.1283 -10.0204  -9.9701  -9.8890  -9.5915  -9.5562
    -9.2815  -9.2357  -8.9514  -8.8989  -8.8033  -8.7384  -8.3235  -8.3161
     3.5797   3.6253   5.4695   5.5313   5.8403   5.8764   6.2948   6.3313
     7.0935   7.1177   7.3917   7.4236   8.2908   8.3162   8.7483   8.8592
     9.1060   9.2751  10.0513  10.0787  10.7928  10.8405  11.7207  11.7445
    12.0728  12.1699  12.3464  12.3982  13.0471  13.0835  13.2317  13.2954

          k = 0.0000 0.0000-0.6263 (  5252 PWs)   bands (ev):

   -33.0461 -33.0461 -32.6121 -32.6121 -32.5629 -32.5629 -31.8707 -31.8707
   -14.1980 -14.1980 -13.7851 -13.7851 -13.7065 -13.7065 -13.1923 -13.1923
   -10.4546 -10.4546 -10.0626 -10.0626  -9.8964  -9.8964  -9.5957  -9.5957
    -9.2629  -9.2629  -8.9259  -8.9259  -8.8049  -8.8049  -8.3239  -8.3239
     4.4968   4.4968   4.7956   4.7956   5.8121   5.8121   5.9931   5.9931
     6.8493   6.8493   8.0785   8.0785   8.2796   8.2796   8.4710   8.4710
     9.2067   9.2067  10.0308  10.0308  10.9802  10.9802  11.9569  11.9569
    12.0952  12.0952  12.3689  12.3689  12.6094  12.6094  12.9341  12.9341

          k = 0.0000 0.5773 0.0000 (  5253 PWs)   bands (ev):

   -33.0343 -33.0341 -32.6034 -32.6032 -32.5466 -32.5464 -31.8586 -31.8584
   -14.2480 -14.2391 -13.8416 -13.8296 -13.7408 -13.7337 -13.2028 -13.1973
   -10.5036 -10.4846 -10.1605 -10.1051 -10.0097  -9.9579  -9.6472  -9.6149
    -9.3144  -9.2948  -8.9971  -8.9847  -8.8370  -8.7999  -8.5336  -8.5102
     4.2273   4.2916   5.7352   5.8497   5.9928   6.0976   6.4105   6.4386
     6.8413   6.9779   7.5990   7.7262   7.8306   7.9457   8.2507   8.5476
     8.9989   9.2775   9.9801  10.0985  11.1604  11.1966  11.4850  11.5063
    12.3042  12.3895  12.6047  12.7024  12.9029  13.0308  13.4190  13.4761

          k = 0.0000 0.5773 0.3132 (  5250 PWs)   bands (ev):

   -33.0335 -33.0333 -32.6021 -32.6019 -32.5483 -32.5481 -31.8591 -31.8589
   -14.2415 -14.2246 -13.8435 -13.8106 -13.7680 -13.7410 -13.2114 -13.2060
   -10.5039 -10.4655 -10.1934 -10.0789 -10.0095  -9.9433  -9.6515  -9.6119
    -9.3339  -9.2894  -9.0217  -8.9500  -8.8682  -8.7950  -8.5221  -8.4998
     4.5557   4.5974   5.7346   5.7743   5.8859   6.0158   6.3716   6.4324
     6.5297   6.5680   7.6511   7.8041   8.0871   8.1651   8.3665   8.5568
     8.9703   9.2055   9.5992   9.6581  11.0634  11.1179  11.6709  11.7114
    12.2842  12.3693  12.6728  12.7047  13.1830  13.2835  13.5655  13.6894

          k = 0.0000 0.5773-0.6263 (  5272 PWs)   bands (ev):

   -33.0329 -33.0327 -32.6004 -32.6002 -32.5502 -32.5500 -31.8596 -31.8594
   -14.2424 -14.2263 -13.8264 -13.8192 -13.7646 -13.7593 -13.2122 -13.2091
   -10.5182 -10.4573 -10.1740 -10.1225  -9.9594  -9.9384  -9.6349  -9.5850
    -9.3462  -9.2899  -9.0228  -8.9605  -8.8847  -8.8367  -8.5081  -8.4769
     4.8444   4.9375   5.4018   5.4462   5.8979   6.0086   6.2907   6.3645
     6.6684   6.7173   7.7199   7.7919   7.9029   8.0042   8.4103   8.5677
     8.8824   9.1173   9.7643   9.9129  11.1484  11.2162  11.5745  11.6215
    12.4235  12.5142  12.7612  12.7749  13.0572  13.0886  13.3251  13.3472

          k = 0.0000-1.1547 0.0000 (  5284 PWs)   bands (ev):

   -33.0203 -33.0203 -32.5927 -32.5927 -32.5326 -32.5326 -31.8477 -31.8477
   -14.2828 -14.2828 -13.8813 -13.8813 -13.7816 -13.7816 -13.2316 -13.2316
   -10.5316 -10.5316 -10.1881 -10.1881 -10.0581 -10.0581  -9.6820  -9.6820
    -9.3216  -9.3216  -9.0184  -9.0184  -8.8974  -8.8974  -8.6503  -8.6503
     5.0871   5.0871   5.8683   5.8683   6.0810   6.0810   6.3294   6.3294
     6.5173   6.5173   6.7484   6.7484   7.7421   7.7421   8.6599   8.6599
     9.1919   9.1919  10.2275  10.2275  10.7756  10.7756  11.9686  11.9686
    12.1751  12.1751  12.3591  12.3591  13.6421  13.6421  14.4576  14.4576

          k = 0.0000-1.1547 0.3132 (  5252 PWs)   bands (ev):

   -33.0202 -33.0202 -32.5908 -32.5908 -32.5344 -32.5344 -31.8478 -31.8478
   -14.2909 -14.2874 -13.8881 -13.8693 -13.7996 -13.7802 -13.2344 -13.2303
   -10.5469 -10.5205 -10.2469 -10.1702 -10.0787 -10.0112  -9.6731  -9.6363
    -9.3413  -9.3056  -9.0493  -8.9963  -8.9497  -8.8557  -8.6485  -8.5923
     5.0940   5.1029   5.4663   5.4837   5.7380   5.7793   6.2341   6.2824
     6.8936   7.0577   7.3617   7.4094   7.5616   7.6649   8.6520   8.7405
     9.2888   9.4145   9.9193  10.0064  10.8082  10.8726  11.7270  11.8184
    12.0034  12.0624  12.4412  12.4912  13.6578  13.6836  14.2611  14.3246

          k = 0.0000-1.1547-0.6263 (  5272 PWs)   bands (ev):

   -33.0201 -33.0201 -32.5888 -32.5888 -32.5364 -32.5364 -31.8479 -31.8479
   -14.2954 -14.2954 -13.8784 -13.8784 -13.7959 -13.7959 -13.2333 -13.2333
   -10.5363 -10.5363 -10.2391 -10.2391 -10.0206 -10.0206  -9.6283  -9.6283
    -9.3249  -9.3249  -9.0450  -9.0450  -8.8912  -8.8912  -8.5897  -8.5897
     5.0421   5.0421   5.3742   5.3742   5.6577   5.6577   6.1122   6.1122
     6.8114   6.8114   7.8831   7.8831   8.1403   8.1403   8.8145   8.8145
     9.1434   9.1434   9.6523   9.6523  10.8919  10.8919  11.6742  11.6742
    12.3061  12.3061  12.6459  12.6459  13.4561  13.4561  13.6984  13.6984

          k = 0.2500 0.1443 0.0000 (  5279 PWs)   bands (ev):

   -33.0481 -33.0480 -32.6136 -32.6136 -32.5605 -32.5605 -31.8694 -31.8694
   -14.2185 -14.2163 -13.8069 -13.7999 -13.6846 -13.6801 -13.1709 -13.1694
   -10.4625 -10.4482 -10.0926 -10.0555  -9.9580  -9.9116  -9.5981  -9.5650
    -9.2387  -9.2245  -8.9302  -8.9172  -8.7734  -8.7626  -8.3724  -8.3584
     3.5000   3.5705   5.4902   5.6617   6.0138   6.0751   6.4926   6.5064
     7.0636   7.2248   7.4863   7.5424   8.1127   8.2103   8.4848   8.5673
     9.2952   9.4248   9.8902   9.9324  10.7877  10.8440  11.5527  11.5876
    12.2185  12.2393  12.5331  12.6042  12.8433  12.8996  13.1501  13.2029

          k = 0.2500 0.1443 0.3132 (  5261 PWs)   bands (ev):

   -33.0468 -33.0468 -32.6127 -32.6127 -32.5620 -32.5620 -31.8703 -31.8703
   -14.2111 -14.1973 -13.8082 -13.7676 -13.7168 -13.6835 -13.1881 -13.1762
   -10.4635 -10.4179 -10.1197 -10.0108  -9.9424  -9.8903  -9.6011  -9.5785
    -9.2734  -9.2329  -8.9563  -8.8942  -8.8215  -8.7546  -8.3828  -8.3618
     3.9107   3.9857   5.4636   5.5959   5.8074   5.8884   6.3197   6.3832
     6.9531   7.0417   7.4655   7.5852   8.1615   8.2430   8.5194   8.5868
     9.3229   9.5145   9.7908   9.8329  10.8445  10.9094  11.8155  11.8910
    11.9596  12.0091  12.1113  12.1555  12.8798  12.9170  13.1069  13.2024

          k = 0.2500 0.1443-0.6263 (  5254 PWs)   bands (ev):

   -33.0455 -33.0455 -32.6117 -32.6117 -32.5637 -32.5636 -31.8713 -31.8713
   -14.1902 -14.1881 -13.7846 -13.7829 -13.7100 -13.7077 -13.1945 -13.1927
   -10.4336 -10.4218 -10.0711 -10.0605  -9.9089  -9.8810  -9.6015  -9.5835
    -9.2693  -9.2487  -8.9639  -8.9337  -8.8169  -8.7945  -8.3779  -8.3658
     4.7170   4.7782   5.0563   5.0917   5.7193   5.7965   5.9078   5.9879
     6.8422   6.9163   7.9346   8.0223   8.1067   8.2425   8.4037   8.4311
     9.0968   9.2957   9.8845   9.9663  11.0753  11.1402  11.8021  11.8274
    11.9684  12.0421  12.2385  12.2917  12.3776  12.4366  12.8364  12.8865

          k = 0.2500 0.7217 0.0000 (  5270 PWs)   bands (ev):

   -33.0339 -33.0337 -32.6031 -32.6030 -32.5469 -32.5468 -31.8589 -31.8587
   -14.2494 -14.2406 -13.8398 -13.8290 -13.7360 -13.7309 -13.2058 -13.2004
   -10.4940 -10.4827 -10.1356 -10.1051 -10.0092  -9.9534  -9.6630  -9.6313
    -9.2787  -9.2597  -8.9902  -8.9452  -8.8865  -8.8506  -8.5703  -8.5270
     4.8060   4.8451   5.2297   5.3814   6.1536   6.1859   6.5110   6.5347
     6.7110   6.7865   7.5090   7.6225   7.7024   7.7535   8.2580   8.4675
     9.1474   9.2871   9.8579   9.9271  11.2336  11.2678  11.5348  11.5636
    12.1258  12.1629  12.3635  12.4663  12.7969  12.9496  13.2785  13.3469

          k = 0.2500 0.7217 0.3132 (  5250 PWs)   bands (ev):

   -33.0332 -33.0330 -32.6017 -32.6016 -32.5486 -32.5485 -31.8595 -31.8593
   -14.2419 -14.2261 -13.8441 -13.8152 -13.7601 -13.7369 -13.2139 -13.2076
   -10.4864 -10.4558 -10.1783 -10.0983 -10.0036  -9.9501  -9.6556  -9.6067
    -9.2986  -9.2651  -9.0165  -8.9654  -8.8807  -8.8268  -8.5539  -8.5194
     5.0002   5.0090   5.4580   5.5546   5.9394   5.9997   6.2722   6.3399
     6.5412   6.6156   7.6654   7.7770   7.8996   8.0217   8.4300   8.5167
     8.9778   9.0675   9.6526   9.7509  11.1489  11.1758  11.6554  11.6887
    12.1515  12.1640  12.3620  12.3859  12.9530  13.0390  13.3705  13.4457

          k = 0.2500 0.7217-0.6263 (  5252 PWs)   bands (ev):

   -33.0326 -33.0324 -32.6001 -32.5999 -32.5505 -32.5503 -31.8600 -31.8598
   -14.2435 -14.2290 -13.8253 -13.8157 -13.7632 -13.7575 -13.2144 -13.2110
   -10.4865 -10.4476 -10.1876 -10.1307  -9.9627  -9.9328  -9.6288  -9.5733
    -9.3118  -9.2840  -9.0389  -9.0082  -8.8537  -8.8438  -8.5501  -8.4954
     5.1528   5.2427   5.5073   5.5315   5.7988   5.8586   5.9614   6.0613
     6.8035   6.8935   7.6940   7.7693   7.9164   8.1990   8.2399   8.3070
     9.1877   9.3416   9.6575   9.7100  11.2032  11.2536  11.4773  11.5151
    12.1127  12.2040  12.5891  12.6224  12.7854  12.8103  12.9154  12.9977

          k = 0.2500-1.0104 0.0000 (  5254 PWs)   bands (ev):

   -33.0203 -33.0203 -32.5927 -32.5927 -32.5325 -32.5325 -31.8478 -31.8478
   -14.2809 -14.2789 -13.8829 -13.8807 -13.7793 -13.7772 -13.2300 -13.2293
   -10.5311 -10.5270 -10.1930 -10.1730 -10.0589 -10.0348  -9.6680  -9.6651
    -9.3256  -9.3105  -9.0557  -9.0397  -8.9234  -8.9163  -8.6811  -8.6662
     5.3053   5.3448   5.9807   5.9984   6.1018   6.1350   6.3252   6.3993
     6.5223   6.5823   6.8670   6.9974   7.7006   7.7300   8.3602   8.4956
     8.9975   9.0216  10.0877  10.1099  10.9483  10.9983  11.8534  11.9182
    12.1252  12.2301  12.3198  12.3629  13.2163  13.2650  14.0039  14.0675

          k = 0.2500-1.0104 0.3132 (  5260 PWs)   bands (ev):

   -33.0202 -33.0202 -32.5909 -32.5908 -32.5344 -32.5343 -31.8478 -31.8478
   -14.2890 -14.2832 -13.8863 -13.8705 -13.7954 -13.7788 -13.2327 -13.2282
   -10.5429 -10.5200 -10.2341 -10.1740 -10.0635 -10.0043  -9.6610  -9.6144
    -9.3475  -9.2994  -9.0634  -9.0337  -8.9878  -8.8758  -8.6646  -8.6128
     5.2928   5.3309   5.6427   5.6986   5.8957   5.9298   6.2365   6.3400
     6.8116   6.9744   7.4240   7.5581   7.6125   7.7601   8.4309   8.5800
     8.8767   9.0176   9.7502   9.9061  10.9222  10.9590  11.5045  11.5977
    12.0580  12.1540  12.5819  12.6039  13.3152  13.3961  13.7983  13.8565

          k = 0.2500-1.0104-0.6263 (  5260 PWs)   bands (ev):

   -33.0201 -33.0201 -32.5888 -32.5888 -32.5364 -32.5364 -31.8479 -31.8479
   -14.2932 -14.2899 -13.8823 -13.8738 -13.7956 -13.7911 -13.2321 -13.2311
   -10.5406 -10.5311 -10.2391 -10.2100 -10.0317 -10.0046  -9.6240  -9.5950
    -9.3541  -9.3104  -9.0772  -9.0478  -8.9453  -8.9106  -8.6068  -8.6011
     5.2770   5.3347   5.5497   5.5897   5.7865   5.8311   6.2066   6.2732
     6.7986   6.8692   7.7417   7.8135   7.9947   8.1621   8.4477   8.5812
     8.8658   8.9127   9.4504   9.5413  10.9655  11.0623  11.3159  11.4015
    12.1593  12.2254  12.6263  12.7130  13.0877  13.1184  13.5164  13.6207

          k = 0.2500-0.4330 0.0000 (  5251 PWs)   bands (ev):

   -33.0347 -33.0345 -32.6033 -32.6032 -32.5463 -32.5462 -31.8584 -31.8582
   -14.2528 -14.2420 -13.8475 -13.8394 -13.7308 -13.7228 -13.1996 -13.1951
   -10.5062 -10.4891 -10.1508 -10.1155  -9.9824  -9.9560  -9.6431  -9.5951
    -9.3115  -9.2792  -9.0459  -9.0194  -8.8419  -8.8223  -8.5153  -8.4990
     4.0773   4.1553   5.9622   6.0140   6.2018   6.2812   6.5150   6.6145
     7.0241   7.1109   7.3063   7.4404   7.8047   7.8814   8.3494   8.5903
     8.7804   8.9863   9.9830  10.0951  11.1907  11.2651  11.3735  11.3972
    12.4065  12.4886  12.6055  12.6643  12.9445  12.9987  13.3244  13.3707

          k = 0.2500-0.4330 0.3132 (  5259 PWs)   bands (ev):

   -33.0340 -33.0338 -32.6019 -32.6017 -32.5480 -32.5479 -31.8589 -31.8587
   -14.2574 -14.2415 -13.8463 -13.8206 -13.7494 -13.7270 -13.2029 -13.1975
   -10.5302 -10.4760 -10.1571 -10.0884  -9.9887  -9.9359  -9.6262  -9.5625
    -9.3410  -9.2846  -9.0366  -8.9887  -8.9151  -8.8384  -8.5089  -8.4752
     4.2904   4.4003   5.9593   6.0511   6.2360   6.3635   6.4110   6.4353
     6.8179   6.8812   7.2258   7.3644   7.6984   7.7727   8.4399   8.6622
     8.9046   9.0428  10.0101  10.1539  11.1885  11.2431  11.4402  11.4845
    12.3264  12.4236  12.4485  12.4852  12.7774  12.8335  13.3802  13.4678

          k = 0.2500-0.4330-0.6263 (  5266 PWs)   bands (ev):

   -33.0332 -33.0330 -32.6006 -32.6004 -32.5498 -32.5496 -31.8594 -31.8592
   -14.2514 -14.2309 -13.8200 -13.8129 -13.7663 -13.7546 -13.2104 -13.2088
   -10.5323 -10.4627 -10.1395 -10.1046  -9.9647  -9.9483  -9.6334  -9.5667
    -9.3474  -9.2715  -9.0365  -9.0010  -8.9123  -8.8558  -8.4936  -8.4685
     4.9367   5.0352   5.4281   5.4804   6.0901   6.1840   6.4442   6.4767
     6.7268   6.7519   7.3127   7.4286   7.8980   7.9635   8.3664   8.4843
     8.8761   8.9434   9.7278   9.8623  10.9374  11.0251  11.7015  11.7298
    12.3805  12.4230  12.6176  12.6638  12.7264  12.7829  13.0403  13.1454

          k =-0.5000-0.2887 0.0000 (  5254 PWs)   bands (ev):

   -33.0473 -33.0473 -32.6135 -32.6135 -32.5610 -32.5610 -31.8699 -31.8699
   -14.2129 -14.2129 -13.7923 -13.7923 -13.6863 -13.6863 -13.1748 -13.1748
   -10.4464 -10.4464 -10.0603 -10.0603  -9.9128  -9.9128  -9.6131  -9.6131
    -9.2022  -9.2022  -8.8854  -8.8854  -8.8424  -8.8424  -8.4158  -8.4158
     4.2382   4.2382   4.7337   4.7337   6.5183   6.5183   6.8345   6.8345
     7.1654   7.1654   7.4805   7.4805   7.8026   7.8026   8.2356   8.2356
     9.4479   9.4479   9.7941   9.7941  11.0670  11.0670  11.4921  11.4921
    12.2315  12.2315  12.3445  12.3445  12.7455  12.7455  12.9670  12.9670

          k =-0.5000-0.2887 0.3132 (  5256 PWs)   bands (ev):

   -33.0461 -33.0461 -32.6124 -32.6124 -32.5627 -32.5626 -31.8709 -31.8709
   -14.2034 -14.1906 -13.8016 -13.7665 -13.7169 -13.6867 -13.1913 -13.1782
   -10.4407 -10.4026 -10.1024 -10.0244  -9.9387  -9.8691  -9.6315  -9.5768
    -9.2318  -9.2225  -8.9646  -8.9188  -8.8223  -8.7977  -8.4368  -8.4031
     4.4900   4.5463   4.9785   5.0197   6.1204   6.2730   6.4895   6.5737
     6.9118   7.0724   7.5046   7.5235   7.8798   7.9375   8.3326   8.3733
     9.3349   9.4276   9.7715   9.8842  11.0818  11.1402  11.5731  11.6154
    11.9338  12.0378  12.3408  12.3893  12.6304  12.7018  12.7874  12.8330

          k =-0.5000-0.2887-0.6263 (  5256 PWs)   bands (ev):

   -33.0449 -33.0449 -32.6112 -32.6112 -32.5644 -32.5644 -31.8719 -31.8719
   -14.1800 -14.1800 -13.7835 -13.7835 -13.7104 -13.7104 -13.1950 -13.1950
   -10.3975 -10.3975 -10.0744 -10.0744  -9.8922  -9.8922  -9.5879  -9.5879
    -9.2512  -9.2512  -8.9833  -8.9833  -8.7960  -8.7960  -8.4230  -8.4230
     5.0955   5.0955   5.4440   5.4440   5.6742   5.6742   5.8060   5.8060
     7.0194   7.0194   7.6074   7.6074   8.0167   8.0167   8.3438   8.3438
     9.4727   9.4727   9.6849   9.6849  11.2920  11.2920  11.5864  11.5864
    11.9026  11.9026  12.1393  12.1393  12.4082  12.4082  12.7876  12.7876

          k =-0.5000 0.2887 0.0000 (  5253 PWs)   bands (ev):

   -33.0343 -33.0342 -32.6031 -32.6029 -32.5466 -32.5465 -31.8588 -31.8586
   -14.2541 -14.2436 -13.8463 -13.8376 -13.7262 -13.7203 -13.2025 -13.1983
   -10.4977 -10.4849 -10.1289 -10.1148  -9.9875  -9.9450  -9.6600  -9.6092
    -9.2734  -9.2417  -9.0211  -9.0077  -8.8943  -8.8750  -8.5412  -8.5173
     4.3876   4.5105   5.8957   5.9432   6.2388   6.2996   6.5926   6.6083
     6.9172   6.9582   7.2217   7.3420   7.6263   7.6882   8.2346   8.3671
     8.9438   9.0349   9.9407  10.0073  11.2706  11.3110  11.4548  11.5319
    12.1372  12.2315  12.3840  12.4292  12.7057  12.8235  13.1300  13.2394

          k =-0.5000 0.2887 0.3132 (  5250 PWs)   bands (ev):

   -33.0335 -33.0334 -32.6018 -32.6017 -32.5483 -32.5482 -31.8593 -31.8591
   -14.2483 -14.2313 -13.8456 -13.8165 -13.7545 -13.7285 -13.2124 -13.2052
   -10.4929 -10.4607 -10.1630 -10.0947 -10.0035  -9.9374  -9.6509  -9.5958
    -9.2875  -9.2402  -9.0404  -9.0016  -8.9220  -8.8586  -8.5293  -8.5029
     4.7116   4.7919   5.8835   5.9454   6.0546   6.1221   6.3620   6.4346
     6.8407   6.8698   7.3339   7.4954   7.8546   7.8941   8.3034   8.4287
     8.6331   8.7381   9.7627   9.8302  11.1819  11.2352  11.6014  11.6467
    12.1170  12.1812  12.2771  12.3547  12.7254  12.7842  13.5245  13.5623

          k =-0.5000 0.2887-0.6263 (  5272 PWs)   bands (ev):

   -33.0329 -33.0327 -32.6003 -32.6001 -32.5501 -32.5500 -31.8598 -31.8596
   -14.2524 -14.2337 -13.8162 -13.8118 -13.7650 -13.7531 -13.2127 -13.2107
   -10.5027 -10.4541 -10.1501 -10.1119  -9.9697  -9.9423  -9.6262  -9.5538
    -9.3106  -9.2630  -9.0578  -9.0427  -8.8973  -8.8627  -8.5290  -8.4851
     5.2157   5.2905   5.6121   5.6866   5.7746   5.8453   6.2402   6.2681
     6.9796   7.0424   7.3532   7.4648   7.8514   7.9225   8.1368   8.2795
     9.0164   9.0948   9.6702   9.7868  11.0314  11.1343  11.5002  11.5741
    12.0587  12.1620  12.4389  12.5016  12.6239  12.6626  12.8190  12.9010

          k =-0.5000-1.4434 0.0000 (  5252 PWs)   bands (ev):

   -33.0203 -33.0203 -32.5928 -32.5928 -32.5324 -32.5324 -31.8478 -31.8478
   -14.2769 -14.2769 -13.8822 -13.8822 -13.7749 -13.7749 -13.2277 -13.2277
   -10.5265 -10.5265 -10.1799 -10.1799 -10.0330 -10.0330  -9.6504  -9.6504
    -9.3116  -9.3116  -9.0815  -9.0815  -8.9423  -8.9423  -8.6969  -8.6969
     5.6251   5.6251   5.9830   5.9830   6.1901   6.1901   6.5142   6.5142
     6.5838   6.5838   7.2473   7.2473   7.6108   7.6108   8.0258   8.0258
     8.8468   8.8468   9.9552   9.9552  11.4753  11.4753  11.5998  11.5998
    12.1281  12.1281  12.3032  12.3032  12.9270  12.9270  13.5691  13.5691

          k =-0.5000-1.4434 0.3132 (  5244 PWs)   bands (ev):

   -33.0202 -33.0202 -32.5909 -32.5909 -32.5343 -32.5343 -31.8479 -31.8478
   -14.2848 -14.2799 -13.8888 -13.8701 -13.7923 -13.7745 -13.2307 -13.2269
   -10.5449 -10.5157 -10.2271 -10.1604 -10.0515  -9.9997  -9.6477  -9.5898
    -9.3501  -9.3078  -9.0827  -9.0639  -9.0044  -8.9168  -8.6816  -8.6320
     5.5518   5.6272   5.8788   5.9583   6.1979   6.2809   6.3330   6.3615
     6.6060   6.6694   7.2486   7.3708   7.8521   8.0380   8.0961   8.2364
     8.6312   8.7119   9.5834   9.7478  11.2661  11.2993  11.3814  11.4177
    12.0899  12.1582  12.2180  12.2828  12.8707  12.9865  13.5941  13.6611

          k =-0.5000-1.4434-0.6263 (  5288 PWs)   bands (ev):

   -33.0201 -33.0201 -32.5888 -32.5888 -32.5364 -32.5364 -31.8479 -31.8479
   -14.2878 -14.2878 -13.8779 -13.8779 -13.7906 -13.7906 -13.2299 -13.2299
   -10.5354 -10.5354 -10.2114 -10.2114 -10.0137 -10.0137  -9.5891  -9.5891
    -9.3428  -9.3428  -9.0762  -9.0762  -8.9679  -8.9679  -8.6177  -8.6177
     5.5676   5.5676   5.8800   5.8800   6.0736   6.0736   6.3383   6.3383
     6.7582   6.7582   7.5803   7.5803   7.9745   7.9745   8.1826   8.1826
     8.8217   8.8217   9.2293   9.2293  11.0005  11.0005  11.2206  11.2206
    12.4603  12.4603  12.6750  12.6750  12.7246  12.7246  12.8653  12.8653

          k = 0.0000-0.5773 0.3132 (  5250 PWs)   bands (ev):

   -33.0336 -33.0335 -32.6018 -32.6017 -32.5484 -32.5482 -31.8591 -31.8589
   -14.2503 -14.2391 -13.8416 -13.8179 -13.7560 -13.7371 -13.2050 -13.1989
   -10.5172 -10.4738 -10.1767 -10.1066  -9.9925  -9.9280  -9.6271  -9.5917
    -9.3304  -9.2980  -9.0021  -8.9631  -8.8909  -8.8316  -8.5209  -8.4819
     4.3557   4.4420   5.7754   5.8510   5.9553   6.0583   6.3432   6.3639
     6.7820   6.9012   7.6424   7.6910   7.7649   7.8743   8.3699   8.5969
     8.8822   9.1410  10.1036  10.2782  11.3207  11.3651  11.5247  11.5643
    12.2963  12.3785  12.5400  12.6483  12.8932  12.9747  13.4258  13.4831

          k =-0.2500-0.1443 0.3132 (  5261 PWs)   bands (ev):

   -33.0468 -33.0468 -32.6126 -32.6126 -32.5621 -32.5621 -31.8703 -31.8703
   -14.2095 -14.1957 -13.8123 -13.7794 -13.7082 -13.6810 -13.1879 -13.1746
   -10.4604 -10.4157 -10.1119 -10.0354  -9.9646  -9.8696  -9.6175  -9.5546
    -9.2499  -9.2282  -8.9559  -8.8957  -8.8290  -8.7818  -8.3767  -8.3536
     3.8574   3.9426   5.5733   5.6792   5.7850   5.8702   6.2379   6.2942
     7.0989   7.1417   7.5131   7.6433   8.1054   8.1942   8.4455   8.5599
     9.0936   9.2395  10.0426  10.1149  11.1212  11.1522  11.3979  11.4416
    12.0185  12.0795  12.4160  12.4859  12.7366  12.7513  13.1973  13.2457

          k =-0.2500-0.7217 0.3132 (  5250 PWs)   bands (ev):

   -33.0333 -33.0332 -32.6016 -32.6014 -32.5487 -32.5485 -31.8594 -31.8592
   -14.2521 -14.2422 -13.8375 -13.8111 -13.7585 -13.7342 -13.2084 -13.2016
   -10.4984 -10.4697 -10.1766 -10.0959  -9.9905  -9.9247  -9.6354  -9.5999
    -9.2965  -9.2760  -9.0167  -8.9807  -8.8873  -8.8436  -8.5606  -8.5045
     4.8643   4.9418   5.2475   5.4112   6.1112   6.1490   6.3377   6.3743
     6.7946   6.8758   7.5386   7.6371   7.7514   7.8812   8.2037   8.3999
     9.1741   9.3500   9.8862  10.0583  11.3016  11.3416  11.6082  11.6861
    12.0675  12.1451  12.3260  12.3836  12.6191  12.7103  13.0244  13.0905

          k =-0.2500 1.0104 0.3132 (  5260 PWs)   bands (ev):

   -33.0202 -33.0202 -32.5908 -32.5908 -32.5344 -32.5344 -31.8478 -31.8478
   -14.2874 -14.2835 -13.8907 -13.8690 -13.7961 -13.7762 -13.2324 -13.2290
   -10.5491 -10.5160 -10.2415 -10.1499 -10.0749 -10.0052  -9.6618  -9.6130
    -9.3459  -9.3116  -9.0673  -9.0267  -8.9641  -8.8952  -8.6661  -8.6115
     5.3121   5.3694   5.7099   5.7354   5.8538   5.9131   6.3527   6.3870
     6.7834   6.8469   7.2447   7.3509   7.7107   7.7905   8.3257   8.4606
     9.0807   9.2004   9.7495   9.8733  11.0454  11.1678  11.5348  11.6191
    12.0134  12.1042  12.4113  12.4211  12.9363  12.9717  14.1751  14.2291

          k =-0.2500 0.4330 0.3132 (  5259 PWs)   bands (ev):

   -33.0338 -33.0337 -32.6021 -32.6020 -32.5479 -32.5478 -31.8590 -31.8588
   -14.2479 -14.2296 -13.8453 -13.8130 -13.7612 -13.7324 -13.2100 -13.2036
   -10.5105 -10.4702 -10.1779 -10.0763 -10.0063  -9.9321  -9.6491  -9.6006
    -9.3253  -9.2698  -9.0409  -8.9968  -8.8902  -8.8232  -8.5041  -8.4848
     4.4685   4.4987   5.9022   5.9607   6.0055   6.1256   6.5086   6.5950
     6.7005   6.7613   7.3993   7.6080   8.0727   8.1097   8.2088   8.3576
     8.7849   8.9351   9.6584   9.7402  10.9689  11.0306  11.8429  11.8931
    12.2451  12.3074  12.4144  12.5009  13.0386  13.0960  13.6740  13.7647

          k = 0.5000-0.2887 0.3132 (  5250 PWs)   bands (ev):

   -33.0337 -33.0335 -32.6016 -32.6015 -32.5483 -32.5482 -31.8593 -31.8591
   -14.2591 -14.2445 -13.8426 -13.8140 -13.7512 -13.7242 -13.2064 -13.2000
   -10.5128 -10.4709 -10.1579 -10.0737  -9.9898  -9.9329  -9.6348  -9.5682
    -9.3046  -9.2624  -9.0472  -9.0053  -8.9236  -8.8552  -8.5431  -8.4950
     4.6109   4.7523   5.7597   5.8372   6.2634   6.3158   6.3943   6.4181
     6.9169   6.9578   7.2366   7.2520   7.7002   7.7877   8.1505   8.2754
     9.1782   9.3471   9.8613   9.9601  11.1742  11.2289  11.4512  11.4991
    12.0722  12.1259  12.2315  12.2931  12.6689  12.7680  13.0201  13.0958

     the Fermi energy is    11.3548 ev

!    total energy              =   -2248.53006537 Ry
     Harris-Foulkes estimate   =   -2248.53006550 Ry
     estimated scf accuracy    <       0.00000026 Ry

     total all-electron energy =    -90252.873434 Ry

     The total energy is the sum of the following terms:

     one-electron contribution =     -34.98365531 Ry
     hartree contribution      =      44.02813603 Ry
     xc contribution           =    -260.49820161 Ry
     ewald contribution        =    -248.94208901 Ry
     one-center paw contrib.   =   -1748.13171032 Ry
     smearing contrib. (-TS)   =      -0.00254515 Ry

     convergence has been achieved in  10 iterations

     Forces acting on atoms (cartesian axes, Ry/au):

     atom    1 type  1   force =    -0.02866462    0.06354063   -0.80666702
     atom    2 type  1   force =     0.16590246    0.05680924   -0.89748344
     atom    3 type  1   force =     0.02583601   -0.81740199   -0.53487304
     atom    4 type  1   force =     0.00583416   -0.91404425   -0.18327974
     atom    5 type  2   force =     0.04326184   -0.09221060    0.80128417
     atom    6 type  2   force =    -0.14098154   -0.12749318    0.74311105
     atom    7 type  2   force =     0.00429738    0.00409969    0.00473643
     atom    8 type  2   force =    -0.00265427   -0.01093690    0.00958604
     atom    9 type  2   force =    -0.01716595    0.80966364    0.54393527
     atom   10 type  2   force =     0.05415238    0.87572427    0.20858760
     atom   11 type  2   force =     0.18618095    0.06146510    0.08189002
     atom   12 type  2   force =    -0.22203388    0.05699013    0.10489393
     atom   13 type  2   force =     0.00276688    0.01364283   -0.02127798
     atom   14 type  2   force =    -0.07673180    0.02015139   -0.05444330

     Total force =     2.537815     Total SCF correction =     0.001655


     Computing stress (Cartesian axis) and pressure

     Message from routine stres:
     noncollinear stress + GGA not implemented

     BFGS Geometry Optimization

     number of scf cycles    =   1
     number of bfgs steps    =   0

     enthalpy new            =   -2248.5300653674 Ry

     new trust radius        =       0.5000000000 bohr
     new conv_thr            =       0.0000010000 Ry

     new unit-cell volume =    880.86361 a.u.^3 (   130.53052 Ang^3 )
     density =      8.13002 g/cm^3

CELL_PARAMETERS (angstrom)
   7.227900000   0.000000000   0.000000000
  -1.807000000   3.129800000   0.000000000
   0.000000000   0.000000000   5.770100000

ATOMIC_POSITIONS (crystal)
Gd       0.333600466   0.338797010   0.712146805
Gd       0.840743557   0.338214665   0.707885206
Gd       0.149988883   0.595985140   0.224900854
Gd       0.647149393   0.587624452   0.241399520
H        0.338026280   0.304222702   1.006400602
H        0.772761238   0.255470344   0.996870804
H        0.952549653   0.913154671   0.510122259
H        0.510264022   0.970953830   0.499949829
H        0.260668539   1.053445401   0.396024395
H        0.792768970   0.125260421   0.308388062
H        0.074303907   0.395117452   0.821142724
H        0.627114983   0.371430315   0.851722193
H        0.952898721   0.819080265   0.069501522
H        0.498861388   0.829843331   0.070445225



     Writing output data file 2306.save
     NEW-OLD atomic charge density approx. for the potential

     total cpu time spent up to now is       73.8 secs

     per-process dynamical memory:   136.2 Mb

     Self-consistent Calculation

     iteration #  1     ecut=    50.00 Ry     beta=0.70
     Davidson diagonalization with overlap
     c_bands:  2 eigenvalues not converged
     c_bands:  1 eigenvalues not converged
     ethr =  1.00E-06,  avg # of iterations = 16.2

     total cpu time spent up to now is       94.2 secs

     total energy              =   -2250.14886617 Ry
     Harris-Foulkes estimate   =   -2250.96407072 Ry
     estimated scf accuracy    <       0.11593431 Ry

     iteration #  2     ecut=    50.00 Ry     beta=0.70
     Davidson diagonalization with overlap
     ethr =  2.15E-04,  avg # of iterations =  3.1

     total cpu time spent up to now is      100.8 secs

     total energy              =   -2250.13879736 Ry
     Harris-Foulkes estimate   =   -2250.18812380 Ry
     estimated scf accuracy    <       0.08677258 Ry

     iteration #  3     ecut=    50.00 Ry     beta=0.70
     Davidson diagonalization with overlap
     ethr =  1.61E-04,  avg # of iterations =  3.4

     total cpu time spent up to now is      107.6 secs

     total energy              =   -2250.15438983 Ry
     Harris-Foulkes estimate   =   -2250.18107393 Ry
     estimated scf accuracy    <       0.07628372 Ry

     iteration #  4     ecut=    50.00 Ry     beta=0.70
     Davidson diagonalization with overlap
     ethr =  1.41E-04,  avg # of iterations =  3.0

     total cpu time spent up to now is      113.5 secs

     total energy              =   -2250.16516032 Ry
     Harris-Foulkes estimate   =   -2250.17066536 Ry
     estimated scf accuracy    <       0.01470681 Ry

     iteration #  5     ecut=    50.00 Ry     beta=0.70
     Davidson diagonalization with overlap
     ethr =  2.72E-05,  avg # of iterations =  2.4

     total cpu time spent up to now is      119.4 secs

     total energy              =   -2250.16762314 Ry
     Harris-Foulkes estimate   =   -2250.16805813 Ry
     estimated scf accuracy    <       0.00093881 Ry

     iteration #  6     ecut=    50.00 Ry     beta=0.70
     Davidson diagonalization with overlap
     ethr =  1.74E-06,  avg # of iterations =  4.2

     total cpu time spent up to now is      126.7 secs

     total energy              =   -2250.16783296 Ry
     Harris-Foulkes estimate   =   -2250.16797634 Ry
     estimated scf accuracy    <       0.00036646 Ry

     iteration #  7     ecut=    50.00 Ry     beta=0.70
     Davidson diagonalization with overlap
     ethr =  6.79E-07,  avg # of iterations =  2.9

     total cpu time spent up to now is      132.6 secs

     total energy              =   -2250.16790226 Ry
     Harris-Foulkes estimate   =   -2250.16790816 Ry
     estimated scf accuracy    <       0.00001471 Ry

     iteration #  8     ecut=    50.00 Ry     beta=0.70
     Davidson diagonalization with overlap
     ethr =  2.72E-08,  avg # of iterations =  3.1

     total cpu time spent up to now is      138.8 secs

     total energy              =   -2250.16790585 Ry
     Harris-Foulkes estimate   =   -2250.16790722 Ry
     estimated scf accuracy    <       0.00000291 Ry

     iteration #  9     ecut=    50.00 Ry     beta=0.70
     Davidson diagonalization with overlap
     ethr =  5.38E-09,  avg # of iterations =  3.1

     total cpu time spent up to now is      144.9 secs

     End of self-consistent calculation

          k = 0.0000 0.0000 0.0000 (  5289 PWs)   bands (ev):

   -32.6607 -32.6607 -32.3052 -32.3052 -32.1584 -32.1584 -31.5616 -31.5616
   -13.5184 -13.5184 -13.2161 -13.2161 -13.0302 -13.0302 -12.5319 -12.5319
    -9.5119  -9.5119  -9.3948  -9.3948  -9.0881  -9.0881  -9.0251  -9.0251
    -8.7960  -8.7960  -8.6960  -8.6960  -8.3245  -8.3245  -8.1450  -8.1450
     2.5124   2.5124   5.4727   5.4727   5.9313   5.9313   6.2550   6.2550
     6.4357   6.4357   7.1172   7.1172   7.9851   7.9851   8.9371   8.9371
     9.7110   9.7110  10.7020  10.7020  10.9792  10.9792  12.3848  12.3848
    12.4296  12.4296  12.6345  12.6345  13.4037  13.4037  13.5544  13.5544

          k = 0.0000 0.0000 0.3132 (  5279 PWs)   bands (ev):

   -32.6596 -32.6596 -32.3036 -32.3036 -32.1607 -32.1606 -31.5623 -31.5623
   -13.5159 -13.5083 -13.1975 -13.1884 -13.0503 -13.0482 -12.5489 -12.5470
    -9.5213  -9.4934  -9.3849  -9.3096  -9.1860  -9.1118  -8.9490  -8.9249
    -8.7879  -8.7793  -8.7210  -8.7078  -8.4113  -8.4016  -8.1530  -8.1465
     2.9371   2.9600   5.2163   5.2523   5.5454   5.5904   6.0298   6.0570
     6.6849   6.7034   7.3042   7.3379   7.8840   7.9061   8.8979   8.9436
     9.5347   9.5573  10.5533  10.5631  10.8022  10.8624  12.3082  12.3318
    12.3858  12.4134  12.4641  12.5675  13.2953  13.3378  13.7196  13.7513

          k = 0.0000 0.0000-0.6263 (  5252 PWs)   bands (ev):

   -32.6584 -32.6584 -32.3019 -32.3019 -32.1630 -32.1630 -31.5631 -31.5631
   -13.5067 -13.5067 -13.1572 -13.1572 -13.0792 -13.0792 -12.5648 -12.5648
    -9.5184  -9.5184  -9.3019  -9.3019  -9.0978  -9.0978  -8.9347  -8.9347
    -8.7912  -8.7912  -8.7361  -8.7361  -8.4751  -8.4751  -8.1522  -8.1522
     3.7745   3.7745   4.4530   4.4530   5.5510   5.5510   5.6080   5.6080
     7.0968   7.0968   7.5653   7.5653   7.7257   7.7257   8.8879   8.8879
     9.2847   9.2847  10.2539  10.2539  10.9189  10.9189  12.2362  12.2362
    12.3644  12.3644  12.7911  12.7911  13.1422  13.1422  13.5333  13.5333

          k = 0.0000 0.5773 0.0000 (  5253 PWs)   bands (ev):

   -32.6462 -32.6462 -32.2927 -32.2926 -32.1469 -32.1469 -31.5505 -31.5505
   -13.5381 -13.5288 -13.2510 -13.2399 -13.0718 -13.0663 -12.5994 -12.5853
    -9.4965  -9.4700  -9.4001  -9.3579  -9.1816  -9.1470  -9.0802  -9.0561
    -8.9778  -8.9365  -8.8122  -8.7977  -8.4255  -8.3938  -8.3611  -8.3334
     3.7138   3.7301   5.1855   5.3346   6.1187   6.1904   6.3894   6.4816
     6.5440   6.6094   6.9430   6.9883   7.7549   7.9612   8.1092   8.1812
     8.8586   9.0528  10.3784  10.4357  11.2679  11.3137  11.9939  12.0174
    12.4756  12.4999  12.7302  12.7965  13.4230  13.5380  13.7924  13.8489

          k = 0.0000 0.5773 0.3132 (  5250 PWs)   bands (ev):

   -32.6455 -32.6454 -32.2911 -32.2911 -32.1488 -32.1488 -31.5511 -31.5510
   -13.5341 -13.5221 -13.2393 -13.2257 -13.0903 -13.0808 -12.6075 -12.5973
    -9.5118  -9.4352  -9.3940  -9.3458  -9.2143  -9.1480  -9.1014  -9.0419
    -8.9551  -8.8674  -8.8308  -8.7775  -8.4678  -8.4431  -8.3503  -8.3290
     4.0992   4.1218   5.3207   5.4162   5.7310   5.7751   6.2523   6.3167
     6.5171   6.5434   6.9368   7.0789   7.7261   7.8913   8.4230   8.4978
     8.6691   8.8173   9.7987   9.8111  11.2362  11.3316  12.3166  12.3482
    12.5455  12.6085  12.8206  12.8230  13.3237  13.3802  13.9108  13.9685

          k = 0.0000 0.5773-0.6263 (  5272 PWs)   bands (ev):

   -32.6449 -32.6448 -32.2896 -32.2896 -32.1506 -32.1506 -31.5516 -31.5515
   -13.5342 -13.5190 -13.2243 -13.2104 -13.1065 -13.0994 -12.6175 -12.6040
    -9.5604  -9.4378  -9.3711  -9.3314  -9.2137  -9.1808  -9.0605  -9.0105
    -8.9296  -8.8825  -8.8001  -8.7538  -8.5047  -8.4696  -8.3554  -8.3217
     4.5743   4.6083   5.0075   5.0426   5.6756   5.7064   6.1182   6.1788
     6.6829   6.7676   7.1278   7.2382   7.7239   7.8568   8.0236   8.0409
     8.5970   8.7452   9.5569   9.6492  11.3055  11.4336  11.9288  11.9439
    12.9435  13.0201  13.1266  13.1894  13.4188  13.4568  13.5827  13.6155

          k = 0.0000-1.1547 0.0000 (  5284 PWs)   bands (ev):

   -32.6326 -32.6326 -32.2789 -32.2789 -32.1358 -32.1358 -31.5389 -31.5389
   -13.5617 -13.5617 -13.2846 -13.2846 -13.1187 -13.1187 -12.6487 -12.6487
    -9.5434  -9.5434  -9.4297  -9.4297  -9.2202  -9.2202  -9.1385  -9.1385
    -9.0095  -9.0095  -8.8450  -8.8450  -8.4935  -8.4935  -8.4220  -8.4220
     5.1669   5.1669   5.3370   5.3370   5.7199   5.7199   5.9737   5.9737
     6.1397   6.1397   6.4482   6.4482   7.4827   7.4827   8.3121   8.3121
     9.2433   9.2433  10.6007  10.6007  10.8293  10.8293  12.0618  12.0618
    12.5668  12.5668  12.6720  12.6720  13.2685  13.2685  14.2496  14.2496

          k = 0.0000-1.1547 0.3132 (  5252 PWs)   bands (ev):

   -32.6324 -32.6324 -32.2775 -32.2775 -32.1372 -32.1372 -31.5392 -31.5392
   -13.5659 -13.5617 -13.2860 -13.2762 -13.1328 -13.1225 -12.6575 -12.6494
    -9.5773  -9.5626  -9.4433  -9.4387  -9.2739  -9.2482  -9.1047  -9.0683
    -8.9883  -8.9605  -8.8708  -8.7711  -8.5248  -8.4760  -8.4285  -8.4028
     5.0020   5.0156   5.1847   5.2289   5.7844   5.7978   5.9889   6.0452
     6.3987   6.4409   6.7140   6.7524   7.3669   7.4098   8.3104   8.3547
     9.1178   9.1803   9.9429  10.0038  10.8113  10.8914  11.8489  11.9882
    12.3474  12.3974  12.5758  12.6581  13.7316  13.8548  14.6015  14.6837

          k = 0.0000-1.1547-0.6263 (  5272 PWs)   bands (ev):

   -32.6321 -32.6321 -32.2762 -32.2762 -32.1386 -32.1386 -31.5394 -31.5394
   -13.5658 -13.5658 -13.2777 -13.2777 -13.1365 -13.1365 -12.6583 -12.6583
    -9.5924  -9.5924  -9.4525  -9.4525  -9.2898  -9.2898  -9.0574  -9.0574
    -8.9385  -8.9385  -8.7911  -8.7911  -8.5079  -8.5079  -8.4083  -8.4083
     4.9501   4.9501   5.1449   5.1449   5.6921   5.6921   6.0901   6.0901
     6.6458   6.6458   7.0261   7.0261   7.3810   7.3810   8.4467   8.4467
     8.8563   8.8563   9.4881   9.4881  10.8237  10.8237  11.5363  11.5363
    12.8611  12.8611  13.3495  13.3495  13.5057  13.5057  14.0287  14.0287

          k = 0.2500 0.1443 0.0000 (  5279 PWs)   bands (ev):

   -32.6597 -32.6597 -32.3063 -32.3063 -32.1579 -32.1579 -31.5622 -31.5622
   -13.5136 -13.5099 -13.2146 -13.2133 -13.0234 -13.0182 -12.5453 -12.5406
    -9.5140  -9.4990  -9.3560  -9.3422  -9.1535  -9.1162  -8.9583  -8.9107
    -8.8717  -8.8281  -8.6804  -8.6751  -8.4180  -8.3772  -8.1808  -8.1700
     2.8352   2.8638   4.8373   4.9056   6.1416   6.2189   6.4006   6.4897
     6.7831   6.8356   7.0682   7.1001   7.8146   7.8858   8.6514   8.7126
     9.6154   9.6561  10.5705  10.5955  10.9899  10.9990  12.0458  12.0958
    12.4631  12.5007  12.6738  12.7442  13.0813  13.1555  13.3149  13.3900

          k = 0.2500 0.1443 0.3132 (  5261 PWs)   bands (ev):

   -32.6586 -32.6586 -32.3046 -32.3046 -32.1602 -32.1602 -31.5629 -31.5629
   -13.5061 -13.4993 -13.1984 -13.1907 -13.0425 -13.0397 -12.5592 -12.5551
    -9.4885  -9.4737  -9.3498  -9.2903  -9.1627  -9.0912  -8.9722  -8.9297
    -8.8416  -8.8113  -8.7045  -8.6978  -8.4708  -8.4165  -8.1982  -8.1727
     3.2484   3.2828   4.8873   4.9446   5.6304   5.7004   6.0967   6.1323
     6.8562   6.9094   7.4048   7.4206   7.8711   7.9054   8.6207   8.6675
     9.4598   9.5054  10.2282  10.2516  10.8854  10.9729  12.0681  12.1423
    12.3395  12.4397  12.6497  12.6838  13.0607  13.1111  13.7356  13.8168

          k = 0.2500 0.1443-0.6263 (  5254 PWs)   bands (ev):

   -32.6575 -32.6575 -32.3029 -32.3029 -32.1624 -32.1624 -31.5637 -31.5637
   -13.4962 -13.4916 -13.1688 -13.1639 -13.0719 -13.0672 -12.5738 -12.5695
    -9.4716  -9.4542  -9.2889  -9.2761  -9.0982  -9.0818  -9.0031  -8.9883
    -8.8381  -8.8025  -8.7083  -8.6971  -8.5186  -8.4880  -8.1909  -8.1853
     3.9856   4.0140   4.6651   4.7109   5.3809   5.4141   5.5446   5.5575
     7.0979   7.1399   7.5690   7.6162   7.8766   7.8934   8.4953   8.5186
     9.3243   9.3523   9.9743  10.0127  10.9589  11.0096  12.1152  12.1483
    12.3471  12.4782  12.5979  12.6331  12.8924  12.9121  13.5197  13.5454

          k = 0.2500 0.7217 0.0000 (  5270 PWs)   bands (ev):

   -32.6457 -32.6456 -32.2932 -32.2932 -32.1466 -32.1466 -31.5509 -31.5508
   -13.5359 -13.5266 -13.2517 -13.2396 -13.0666 -13.0602 -12.6068 -12.5938
    -9.4947  -9.4786  -9.3716  -9.3462  -9.1993  -9.1615  -9.1118  -9.0732
    -8.9024  -8.8722  -8.8323  -8.7620  -8.4900  -8.4619  -8.3609  -8.3237
     4.2262   4.2612   4.6714   4.7410   6.1188   6.1528   6.3724   6.3855
     6.5110   6.6174   7.0823   7.1757   7.7047   7.7681   7.9952   8.1074
     9.2330   9.3321  10.1575  10.2161  11.2305  11.2679  11.7366  11.8223
    12.2881  12.3670  12.5372  12.6245  13.3877  13.4222  13.8829  13.9315

          k = 0.2500 0.7217 0.3132 (  5250 PWs)   bands (ev):

   -32.6450 -32.6450 -32.2916 -32.2916 -32.1485 -32.1485 -31.5514 -31.5514
   -13.5293 -13.5191 -13.2439 -13.2275 -13.0840 -13.0764 -12.6144 -12.6041
    -9.4700  -9.4344  -9.3911  -9.3565  -9.1949  -9.1668  -9.1178  -9.0667
    -8.9121  -8.8688  -8.8134  -8.7588  -8.5134  -8.4803  -8.3491  -8.3296
     4.4754   4.5168   5.0242   5.0919   5.7236   5.7436   6.0669   6.0955
     6.5716   6.5855   7.0764   7.1827   7.7897   7.8486   8.2746   8.3266
     8.9174   8.9864   9.7609   9.7772  11.1617  11.2071  11.9602  12.0569
    12.3327  12.3759  12.7503  12.8010  13.4211  13.5068  13.8164  13.8714

          k = 0.2500 0.7217-0.6263 (  5252 PWs)   bands (ev):

   -32.6444 -32.6444 -32.2901 -32.2900 -32.1503 -32.1503 -31.5520 -31.5519
   -13.5270 -13.5152 -13.2331 -13.2159 -13.0999 -13.0933 -12.6228 -12.6106
    -9.4986  -9.4417  -9.3594  -9.3418  -9.2359  -9.1839  -9.0756  -9.0352
    -8.9128  -8.8626  -8.7802  -8.7440  -8.5502  -8.4842  -8.3614  -8.3229
     4.7693   4.8337   5.1512   5.2209   5.4858   5.5477   5.7376   5.7848
     6.9239   6.9369   7.2733   7.3293   7.5385   7.5849   8.0933   8.1520
     8.8565   8.9520   9.5350   9.5859  11.1204  11.1924  11.5490  11.6125
    12.8563  12.8706  13.0336  13.1016  13.2372  13.2929  13.4417  13.5415

          k = 0.2500-1.0104 0.0000 (  5254 PWs)   bands (ev):

   -32.6326 -32.6326 -32.2789 -32.2789 -32.1358 -32.1358 -31.5390 -31.5390
   -13.5602 -13.5597 -13.2850 -13.2836 -13.1149 -13.1127 -12.6461 -12.6448
    -9.5341  -9.5303  -9.4093  -9.3857  -9.2446  -9.2235  -9.1751  -9.1500
    -9.0141  -8.9667  -8.8704  -8.7916  -8.5617  -8.5263  -8.4586  -8.4412
     5.1356   5.1950   5.3455   5.3823   5.8604   5.8966   6.0219   6.0886
     6.2811   6.3541   6.6041   6.6771   7.4633   7.5393   8.1104   8.1930
     8.9534   8.9987  10.1668  10.1905  10.9736  11.0384  12.0466  12.0952
    12.4858  12.5128  12.6035  12.6446  13.4791  13.5211  14.4839  14.5279

          k = 0.2500-1.0104 0.3132 (  5260 PWs)   bands (ev):

   -32.6324 -32.6324 -32.2775 -32.2775 -32.1372 -32.1372 -31.5392 -31.5392
   -13.5640 -13.5596 -13.2840 -13.2751 -13.1285 -13.1189 -12.6546 -12.6461
    -9.5773  -9.5503  -9.4233  -9.3889  -9.2928  -9.2487  -9.1336  -9.0736
    -9.0021  -8.9226  -8.8852  -8.7550  -8.5780  -8.5043  -8.4615  -8.4239
     5.1013   5.1533   5.2079   5.3028   5.8653   5.9831   6.0469   6.1195
     6.5146   6.5921   6.9906   7.0786   7.2434   7.3322   8.0107   8.0563
     8.9045   8.9864   9.6596   9.7080  11.0376  11.0705  11.6226  11.7232
    12.2002  12.3245  12.6820  12.7285  13.8161  13.9190  14.5914  14.6462

          k = 0.2500-1.0104-0.6263 (  5260 PWs)   bands (ev):

   -32.6321 -32.6321 -32.2762 -32.2762 -32.1386 -32.1386 -31.5395 -31.5395
   -13.5637 -13.5635 -13.2746 -13.2744 -13.1345 -13.1333 -12.6559 -12.6547
    -9.5970  -9.5845  -9.4324  -9.3973  -9.3205  -9.2803  -9.0661  -9.0254
    -8.9749  -8.9538  -8.8138  -8.7777  -8.5608  -8.5204  -8.4355  -8.4184
     5.0786   5.1195   5.2524   5.2811   5.8269   5.8440   6.1015   6.1823
     6.7694   6.8015   6.9741   7.0534   7.4161   7.5528   8.1733   8.1864
     8.6699   8.7700   9.1595   9.1893  10.9746  11.0555  11.2458  11.3101
    12.5183  12.6262  13.0679  13.1524  13.5126  13.5644  13.7726  13.9066

          k = 0.2500-0.4330 0.0000 (  5251 PWs)   bands (ev):

   -32.6467 -32.6467 -32.2921 -32.2921 -32.1471 -32.1471 -31.5503 -31.5503
   -13.5417 -13.5320 -13.2520 -13.2412 -13.0723 -13.0622 -12.5930 -12.5803
    -9.5013  -9.4710  -9.4285  -9.3852  -9.1835  -9.1378  -9.0484  -9.0263
    -8.9541  -8.8911  -8.8483  -8.8355  -8.4523  -8.4000  -8.3498  -8.3248
     3.4839   3.5020   5.5479   5.7058   6.2191   6.3110   6.4359   6.4785
     6.5711   6.6765   6.9788   7.0366   7.6940   7.9257   8.0881   8.1168
     8.6215   8.7438  10.4591  10.5208  11.3023  11.3724  11.6989  11.7529
    12.5813  12.6531  12.8631  12.9496  13.2595  13.3489  13.5474  13.6412

          k = 0.2500-0.4330 0.3132 (  5259 PWs)   bands (ev):

   -32.6461 -32.6460 -32.2906 -32.2906 -32.1489 -32.1489 -31.5508 -31.5508
   -13.5429 -13.5290 -13.2406 -13.2247 -13.0860 -13.0780 -12.6032 -12.5882
    -9.5689  -9.4637  -9.3962  -9.3646  -9.2130  -9.1244  -9.0634  -8.9773
    -8.9499  -8.8833  -8.8155  -8.7995  -8.4809  -8.4496  -8.3388  -8.3223
     3.7497   3.7753   5.6230   5.6860   5.9528   6.0323   6.2996   6.3290
     6.5447   6.5760   7.3095   7.3230   7.7180   7.8441   8.0355   8.0888
     8.5644   8.6865   9.9776  10.0687  11.2833  11.3669  11.6071  11.6579
    12.5946  12.6353  12.7512  12.8083  13.3093  13.4011  13.8029  13.9046

          k = 0.2500-0.4330-0.6263 (  5266 PWs)   bands (ev):

   -32.6453 -32.6453 -32.2891 -32.2891 -32.1508 -32.1508 -31.5513 -31.5513
   -13.5405 -13.5239 -13.2180 -13.2044 -13.1094 -13.0984 -12.6131 -12.6008
    -9.5987  -9.4557  -9.3812  -9.3198  -9.1738  -9.1417  -9.0705  -8.9884
    -8.9351  -8.9124  -8.8086  -8.7474  -8.5303  -8.4881  -8.3324  -8.3156
     4.4687   4.5205   4.9248   4.9846   5.9426   6.0016   6.2785   6.3113
     6.5976   6.7128   7.2664   7.3867   7.5284   7.6293   8.1552   8.2107
     8.4310   8.5468   9.6210   9.7109  11.1475  11.2679  11.8524  11.8962
    12.5904  12.6561  12.9014  12.9328  13.0691  13.1181  13.7201  13.7359

          k =-0.5000-0.2887 0.0000 (  5254 PWs)   bands (ev):

   -32.6587 -32.6587 -32.3075 -32.3075 -32.1574 -32.1574 -31.5627 -31.5627
   -13.5050 -13.5050 -13.2121 -13.2121 -13.0107 -13.0107 -12.5546 -12.5546
    -9.5052  -9.5052  -9.2700  -9.2700  -9.1802  -9.1802  -8.9464  -8.9464
    -8.7981  -8.7981  -8.6494  -8.6494  -8.5237  -8.5237  -8.1966  -8.1966
     3.4989   3.4989   4.0632   4.0632   6.4261   6.4261   6.8249   6.8249
     6.9394   6.9394   7.2530   7.2530   7.6460   7.6460   8.1462   8.1462
     9.7789   9.7789  10.2582  10.2582  11.3526  11.3526  11.4936  11.4936
    12.4156  12.4156  12.6781  12.6781  13.2596  13.2596  13.4698  13.4698

          k =-0.5000-0.2887 0.3132 (  5256 PWs)   bands (ev):

   -32.6577 -32.6577 -32.3057 -32.3057 -32.1596 -32.1596 -31.5636 -31.5636
   -13.4961 -13.4897 -13.2004 -13.1931 -13.0341 -13.0309 -12.5683 -12.5647
    -9.4659  -9.4402  -9.3007  -9.2259  -9.1546  -9.1287  -9.0229  -8.9699
    -8.8307  -8.7933  -8.6965  -8.6513  -8.5584  -8.4962  -8.2220  -8.1958
     3.7778   3.7993   4.3683   4.3843   5.8291   5.9148   6.2126   6.2676
     7.0357   7.1829   7.3896   7.4046   7.7741   7.8272   8.2144   8.2544
     9.6018   9.6077   9.9253   9.9615  11.1448  11.2244  11.6528  11.6971
    12.4809  12.5238  12.6745  12.7162  13.2650  13.3331  13.5121  13.5591

          k =-0.5000-0.2887-0.6263 (  5256 PWs)   bands (ev):

   -32.6566 -32.6566 -32.3039 -32.3039 -32.1619 -32.1619 -31.5644 -31.5644
   -13.4802 -13.4802 -13.1766 -13.1766 -13.0594 -13.0594 -12.5787 -12.5787
    -9.3900  -9.3900  -9.2365  -9.2365  -9.1466  -9.1466  -9.0418  -9.0418
    -8.8358  -8.8358  -8.6457  -8.6457  -8.5675  -8.5675  -8.2196  -8.2196
     4.3085   4.3085   5.1013   5.1013   5.1982   5.1982   5.2692   5.2692
     7.2560   7.2560   7.7034   7.7034   7.9284   7.9284   8.0608   8.0608
     9.4829   9.4829   9.6645   9.6645  11.1688  11.1688  11.6485  11.6485
    12.5193  12.5193  12.7023  12.7023  13.0317  13.0317  13.2395  13.2395

          k =-0.5000 0.2887 0.0000 (  5253 PWs)   bands (ev):

   -32.6462 -32.6462 -32.2926 -32.2926 -32.1468 -32.1468 -31.5506 -31.5506
   -13.5395 -13.5299 -13.2527 -13.2408 -13.0661 -13.0575 -12.6003 -12.5888
    -9.4924  -9.4795  -9.4156  -9.3710  -9.1889  -9.1774  -9.0626  -9.0330
    -8.8984  -8.8678  -8.8019  -8.7917  -8.5325  -8.4901  -8.3414  -8.3086
     3.7411   3.7828   5.3598   5.4593   6.0452   6.0975   6.3671   6.4635
     6.6439   6.7195   7.1456   7.1906   7.6591   7.7769   7.9799   8.0464
     8.8183   8.8740  10.4000  10.4597  11.2973  11.3383  11.5649  11.6427
    12.3465  12.4013  12.6427  12.7058  13.2280  13.2822  13.7202  13.8503

          k =-0.5000 0.2887 0.3132 (  5250 PWs)   bands (ev):

   -32.6455 -32.6454 -32.2911 -32.2911 -32.1487 -32.1487 -31.5512 -31.5512
   -13.5339 -13.5241 -13.2414 -13.2253 -13.0856 -13.0732 -12.6095 -12.5994
    -9.5059  -9.4478  -9.3937  -9.3612  -9.2022  -9.1421  -9.1052  -9.0259
    -8.8910  -8.8761  -8.8170  -8.7574  -8.5440  -8.5227  -8.3309  -8.3143
     4.0954   4.1297   5.5077   5.6077   5.7544   5.7899   6.1566   6.2375
     6.6692   6.7402   7.1613   7.2594   7.7909   7.8866   7.9696   8.0282
     8.4737   8.5321  10.1100  10.1477  11.2994  11.3600  11.6162  11.6551
    12.3037  12.3502  12.6923  12.7199  13.3792  13.4080  13.7887  13.8379

          k =-0.5000 0.2887-0.6263 (  5272 PWs)   bands (ev):

   -32.6449 -32.6449 -32.2896 -32.2895 -32.1505 -32.1505 -31.5517 -31.5517
   -13.5336 -13.5203 -13.2263 -13.2099 -13.1028 -13.0926 -12.6183 -12.6074
    -9.5558  -9.4560  -9.3548  -9.3290  -9.1896  -9.1605  -9.0582  -9.0461
    -8.9091  -8.8795  -8.7947  -8.7410  -8.5734  -8.5040  -8.3419  -8.3128
     4.6008   4.6512   5.1348   5.1672   5.5539   5.6285   6.1180   6.1795
     6.7879   6.8699   7.3677   7.4576   7.7370   7.7815   7.8939   7.9119
     8.6129   8.6835   9.7219   9.7740  11.0390  11.1272  11.4017  11.4539
    12.5574  12.5853  12.8024  12.8268  13.0653  13.1206  13.3699  13.4090

          k =-0.5000-1.4434 0.0000 (  5252 PWs)   bands (ev):

   -32.6326 -32.6326 -32.2789 -32.2789 -32.1358 -32.1358 -31.5390 -31.5390
   -13.5581 -13.5581 -13.2840 -13.2840 -13.1089 -13.1089 -12.6423 -12.6423
    -9.5196  -9.5196  -9.3292  -9.3292  -9.2960  -9.2960  -9.1826  -9.1826
    -8.9742  -8.9742  -8.7910  -8.7910  -8.6109  -8.6109  -8.4776  -8.4776
     5.1697   5.1697   5.4028   5.4028   5.9272   5.9272   6.1878   6.1878
     6.6553   6.6553   6.8742   6.8742   7.4249   7.4249   8.0069   8.0069
     8.6416   8.6416   9.8397   9.8397  11.5265  11.5265  11.6417  11.6417
    12.4047  12.4047  12.5643  12.5643  13.6727  13.6727  14.3338  14.3338

          k =-0.5000-1.4434 0.3132 (  5244 PWs)   bands (ev):

   -32.6324 -32.6324 -32.2776 -32.2776 -32.1372 -32.1372 -31.5392 -31.5392
   -13.5616 -13.5579 -13.2826 -13.2735 -13.1249 -13.1146 -12.6507 -12.6438
    -9.5742  -9.5377  -9.3627  -9.3518  -9.3021  -9.2862  -9.1832  -9.0608
    -8.9999  -8.9226  -8.8396  -8.7769  -8.6145  -8.5649  -8.4797  -8.4453
     5.1851   5.2298   5.3892   5.4621   5.9614   6.0364   6.0918   6.1869
     6.6865   6.7511   6.8999   6.9475   7.5472   7.6332   8.0344   8.0978
     8.4511   8.4951   9.3107   9.3693  11.3684  11.3859  11.4747  11.5009
    12.2451  12.2664  12.3512  12.3868  13.8940  13.9698  14.3389  14.3619

          k =-0.5000-1.4434-0.6263 (  5288 PWs)   bands (ev):

   -32.6321 -32.6321 -32.2762 -32.2762 -32.1386 -32.1386 -31.5395 -31.5395
   -13.5614 -13.5614 -13.2713 -13.2713 -13.1314 -13.1314 -12.6522 -12.6522
    -9.5883  -9.5883  -9.3685  -9.3685  -9.3156  -9.3156  -9.0713  -9.0713
    -8.9423  -8.9423  -8.8191  -8.8191  -8.5690  -8.5690  -8.4468  -8.4468
     5.2353   5.2353   5.4548   5.4548   5.9722   5.9722   6.1811   6.1811
     6.8594   6.8594   7.1076   7.1076   7.6104   7.6104   7.9313   7.9313
     8.5251   8.5251   8.8380   8.8380  11.0655  11.0655  11.1937  11.1937
    12.5947  12.5947  12.9228  12.9228  13.0968  13.0968  13.4055  13.4055

          k = 0.0000-0.5773 0.3132 (  5250 PWs)   bands (ev):

   -32.6456 -32.6456 -32.2912 -32.2911 -32.1486 -32.1486 -31.5510 -31.5510
   -13.5377 -13.5257 -13.2417 -13.2261 -13.0861 -13.0805 -12.6093 -12.5916
    -9.5424  -9.4674  -9.3691  -9.3590  -9.2203  -9.1488  -9.0922  -8.9863
    -8.9542  -8.9001  -8.8124  -8.7663  -8.4631  -8.4264  -8.3635  -8.3264
     3.9364   3.9495   5.2835   5.3647   5.8018   5.8457   6.3706   6.4133
     6.7669   6.8716   7.1646   7.1890   7.6438   7.7326   7.8601   7.9526
     8.7354   8.8948  10.0338  10.1397  11.3843  11.4614  11.7898  11.8201
    12.6102  12.6733  12.8503  12.8846  13.5437  13.5935  13.8082  13.8221

          k =-0.2500-0.1443 0.3132 (  5261 PWs)   bands (ev):

   -32.6586 -32.6586 -32.3047 -32.3047 -32.1601 -32.1601 -31.5629 -31.5629
   -13.5073 -13.4979 -13.1992 -13.1898 -13.0449 -13.0380 -12.5600 -12.5538
    -9.4955  -9.4431  -9.3806  -9.2769  -9.1737  -9.1148  -8.9570  -8.9273
    -8.8363  -8.8026  -8.6979  -8.6913  -8.4670  -8.4458  -8.1850  -8.1763
     3.2156   3.2490   5.0022   5.0595   5.5779   5.6468   6.1270   6.1677
     6.9195   6.9441   7.2148   7.2888   7.8580   7.8689   8.6097   8.6564
     9.5226   9.5560  10.2791  10.3140  11.0465  11.0604  11.8649  11.9161
    12.4068  12.4807  12.6305  12.6828  13.1195  13.1938  13.6039  13.6701

          k =-0.2500-0.7217 0.3132 (  5250 PWs)   bands (ev):

   -32.6451 -32.6451 -32.2917 -32.2916 -32.1484 -32.1483 -31.5514 -31.5514
   -13.5336 -13.5231 -13.2445 -13.2282 -13.0827 -13.0731 -12.6151 -12.6001
    -9.5116  -9.4873  -9.3611  -9.3442  -9.1825  -9.1623  -9.1223  -9.0214
    -8.9014  -8.8877  -8.8151  -8.7498  -8.5177  -8.4601  -8.3621  -8.3219
     4.3928   4.4187   4.7390   4.7996   5.9249   5.9976   6.2845   6.3369
     6.7205   6.7998   7.2600   7.3084   7.5137   7.5754   7.9455   8.0257
     9.0627   9.1696   9.8694   9.9613  11.2417  11.2995  11.6818  11.7560
    12.2929  12.3274  12.5256  12.6244  13.5010  13.5344  13.8061  13.8383

          k =-0.2500 1.0104 0.3132 (  5260 PWs)   bands (ev):

   -32.6324 -32.6324 -32.2775 -32.2775 -32.1372 -32.1372 -31.5392 -31.5392
   -13.5635 -13.5599 -13.2846 -13.2746 -13.1293 -13.1181 -12.6536 -12.6472
    -9.5766  -9.5499  -9.4202  -9.3958  -9.2913  -9.2484  -9.1295  -9.0697
    -8.9914  -8.9579  -8.8440  -8.7883  -8.5644  -8.5248  -8.4465  -8.4220
     5.0706   5.1254   5.3257   5.3724   5.9009   5.9527   6.0198   6.0963
     6.3999   6.4871   6.7319   6.7883   7.5531   7.6671   8.2432   8.3389
     8.7439   8.8176   9.5606   9.6229  10.9566  11.0655  11.6929  11.8059
    12.4385  12.4573  12.6853  12.7101  13.6674  13.6963  14.3093  14.3721

          k =-0.2500 0.4330 0.3132 (  5259 PWs)   bands (ev):

   -32.6459 -32.6459 -32.2906 -32.2906 -32.1490 -32.1490 -31.5508 -31.5508
   -13.5388 -13.5268 -13.2372 -13.2237 -13.0917 -13.0774 -12.6028 -12.5926
    -9.5425  -9.4506  -9.3883  -9.3593  -9.2161  -9.1349  -9.0726  -9.0091
    -8.9380  -8.8894  -8.8055  -8.8014  -8.5064  -8.4632  -8.3325  -8.3173
     3.8939   3.9073   5.5199   5.5764   5.8437   5.9432   6.4058   6.5024
     6.6822   6.7918   7.0345   7.0992   7.4746   7.5661   8.2481   8.3164
     8.4786   8.5642  10.0414  10.0771  11.2131  11.3041  12.1740  12.2127
    12.4203  12.4849  12.5804  12.6322  13.4154  13.4634  13.7730  13.8402

          k = 0.5000-0.2887 0.3132 (  5250 PWs)   bands (ev):

   -32.6456 -32.6456 -32.2911 -32.2911 -32.1486 -32.1486 -31.5511 -31.5511
   -13.5388 -13.5264 -13.2432 -13.2266 -13.0816 -13.0719 -12.6089 -12.5967
    -9.5439  -9.4775  -9.3848  -9.3585  -9.1937  -9.1092  -9.0964  -9.0117
    -8.9127  -8.8570  -8.8315  -8.7608  -8.5454  -8.4862  -8.3438  -8.3085
     3.9787   4.0237   5.3624   5.4133   5.8831   5.9511   6.2914   6.3795
     6.5709   6.5894   7.4252   7.4866   7.5915   7.6893   8.0249   8.0912
     8.8293   8.8984   9.9120   9.9705  11.2183  11.2868  11.4310  11.5263
    12.1651  12.1889  12.6536  12.7220  13.4108  13.4950  13.8272  13.8802

     the Fermi energy is    11.4240 ev

!    total energy              =   -2250.16790631 Ry
     Harris-Foulkes estimate   =   -2250.16790677 Ry
     estimated scf accuracy    <       0.00000052 Ry

     total all-electron energy =    -90254.511274 Ry

     The total energy is the sum of the following terms:

     one-electron contribution =     -26.18171054 Ry
     hartree contribution      =      39.53434562 Ry
     xc contribution           =    -259.63809197 Ry
     ewald contribution        =    -255.79434888 Ry
     one-center paw contrib.   =   -1748.08595317 Ry
     smearing contrib. (-TS)   =      -0.00214737 Ry

     convergence has been achieved in   9 iterations

     Forces acting on atoms (cartesian axes, Ry/au):

     atom    1 type  1   force =     0.01067690    0.01892200   -0.11545108
     atom    2 type  1   force =    -0.02931926   -0.02430956   -0.19691192
     atom    3 type  1   force =     0.01484842   -0.13676267   -0.11324471
     atom    4 type  1   force =     0.03961964   -0.16073330   -0.08291898
     atom    5 type  2   force =    -0.00159471   -0.05356804    0.17521135
     atom    6 type  2   force =    -0.00068974   -0.02670689    0.13607060
     atom    7 type  2   force =    -0.00065222    0.00487365   -0.00158535
     atom    8 type  2   force =     0.00051004   -0.01866028    0.00662514
     atom    9 type  2   force =    -0.00512322    0.12344167    0.03628039
     atom   10 type  2   force =     0.00638625    0.15291117    0.05121604
     atom   11 type  2   force =     0.12323801    0.03975821    0.07916599
     atom   12 type  2   force =    -0.09853933    0.03915393    0.04062719
     atom   13 type  2   force =    -0.00114981    0.01924624   -0.00129088
     atom   14 type  2   force =    -0.05821097    0.02243387   -0.01379379

     Total force =     0.506246     Total SCF correction =     0.001099


     Computing stress (Cartesian axis) and pressure

     Message from routine stres:
     noncollinear stress + GGA not implemented

     number of scf cycles    =   2
     number of bfgs steps    =   1

     enthalpy old            =   -2248.5300653674 Ry
     enthalpy new            =   -2250.1679063055 Ry

     CASE: enthalpy_new < enthalpy_old

     new trust radius        =       0.1648054348 bohr
     new conv_thr            =       0.0000010000 Ry

     new unit-cell volume =    880.86361 a.u.^3 (   130.53052 Ang^3 )
     density =      8.13002 g/cm^3

CELL_PARAMETERS (angstrom)
   7.227900000   0.000000000   0.000000000
  -1.807000000   3.129800000   0.000000000
   0.000000000   0.000000000   5.770100000

ATOMIC_POSITIONS (crystal)
Gd       0.335478063   0.341636467   0.706605009
Gd       0.835397294   0.332218122   0.694031360
Gd       0.147518444   0.581538279   0.217105788
Gd       0.646215765   0.569854478   0.233774570
H        0.335184028   0.294696880   1.018702780
H        0.772893489   0.252104125   1.005312932
H        0.952694478   0.914094109   0.509900646
H        0.509409811   0.967276148   0.500605597
H        0.263290476   1.065265707   0.395093275
H        0.797143896   0.142061074   0.312220012
H        0.085781264   0.402305824   0.829279212
H        0.621697105   0.378569501   0.855319240
H        0.953713603   0.822833353   0.069552360
H        0.495282285   0.834145935   0.069397221



     Writing output data file 2306.save
     NEW-OLD atomic charge density approx. for the potential

     total cpu time spent up to now is      149.9 secs

     per-process dynamical memory:   136.2 Mb

     Self-consistent Calculation

     iteration #  1     ecut=    50.00 Ry     beta=0.70
     Davidson diagonalization with overlap
     ethr =  1.00E-06,  avg # of iterations = 10.4

     total cpu time spent up to now is      167.3 secs

     total energy              =   -2250.31817742 Ry
     Harris-Foulkes estimate   =   -2250.38623001 Ry
     estimated scf accuracy    <       0.01379831 Ry

     iteration #  2     ecut=    50.00 Ry     beta=0.70
     Davidson diagonalization with overlap
     ethr =  2.56E-05,  avg # of iterations =  3.9

     total cpu time spent up to now is      175.0 secs

     total energy              =   -2250.31715786 Ry
     Harris-Foulkes estimate   =   -2250.32733600 Ry
     estimated scf accuracy    <       0.02211170 Ry

     iteration #  3     ecut=    50.00 Ry     beta=0.70
     Davidson diagonalization with overlap
     ethr =  2.56E-05,  avg # of iterations =  3.4

     total cpu time spent up to now is      181.9 secs

     total energy              =   -2250.32163000 Ry
     Harris-Foulkes estimate   =   -2250.32300348 Ry
     estimated scf accuracy    <       0.00295953 Ry

     iteration #  4     ecut=    50.00 Ry     beta=0.70
     Davidson diagonalization with overlap
     ethr =  5.48E-06,  avg # of iterations =  3.5

     total cpu time spent up to now is      188.5 secs

     total energy              =   -2250.32207482 Ry
     Harris-Foulkes estimate   =   -2250.32245511 Ry
     estimated scf accuracy    <       0.00083730 Ry

     iteration #  5     ecut=    50.00 Ry     beta=0.70
     Davidson diagonalization with overlap
     ethr =  1.55E-06,  avg # of iterations =  3.3

     total cpu time spent up to now is      195.0 secs

     total energy              =   -2250.32220608 Ry
     Harris-Foulkes estimate   =   -2250.32230739 Ry
     estimated scf accuracy    <       0.00027439 Ry

     iteration #  6     ecut=    50.00 Ry     beta=0.70
     Davidson diagonalization with overlap
     ethr =  5.08E-07,  avg # of iterations =  2.7

     total cpu time spent up to now is      200.6 secs

     total energy              =   -2250.32224827 Ry
     Harris-Foulkes estimate   =   -2250.32226667 Ry
     estimated scf accuracy    <       0.00004811 Ry

     iteration #  7     ecut=    50.00 Ry     beta=0.70
     Davidson diagonalization with overlap
     ethr =  8.91E-08,  avg # of iterations =  2.8

     total cpu time spent up to now is      206.4 secs

     total energy              =   -2250.32225699 Ry
     Harris-Foulkes estimate   =   -2250.32225794 Ry
     estimated scf accuracy    <       0.00000189 Ry

     iteration #  8     ecut=    50.00 Ry     beta=0.70
     Davidson diagonalization with overlap
     ethr =  3.50E-09,  avg # of iterations =  2.7

     total cpu time spent up to now is      212.2 secs

     End of self-consistent calculation

          k = 0.0000 0.0000 0.0000 (  5289 PWs)   bands (ev):

   -32.6175 -32.6175 -32.2897 -32.2897 -32.1306 -32.1306 -31.6946 -31.6946
   -13.4640 -13.4640 -13.1828 -13.1828 -12.9983 -12.9983 -12.5856 -12.5856
    -9.4516  -9.4516  -9.3429  -9.3429  -9.0522  -9.0522  -8.9829  -8.9829
    -8.7319  -8.7319  -8.6612  -8.6612  -8.3091  -8.3091  -8.1974  -8.1974
     2.4404   2.4404   5.3562   5.3562   5.9391   5.9391   6.2488   6.2488
     6.4669   6.4669   7.0677   7.0677   7.8566   7.8566   8.9739   8.9739
     9.8141   9.8141  10.7375  10.7375  11.1989  11.1989  12.3917  12.3917
    12.5688  12.5688  12.6159  12.6159  13.3645  13.3645  13.4946  13.4946

          k = 0.0000 0.0000 0.3132 (  5279 PWs)   bands (ev):

   -32.6163 -32.6163 -32.2880 -32.2880 -32.1328 -32.1328 -31.6955 -31.6955
   -13.4616 -13.4550 -13.1612 -13.1555 -13.0153 -13.0142 -12.6061 -12.6041
    -9.4588  -9.4386  -9.3251  -9.2579  -9.1470  -9.0940  -8.8940  -8.8718
    -8.7257  -8.7172  -8.6785  -8.6703  -8.4047  -8.3956  -8.2063  -8.1991
     2.8654   2.8803   5.1712   5.1997   5.5211   5.5644   6.0351   6.0598
     6.6128   6.6398   7.3344   7.3722   7.7854   7.8074   8.8781   8.9280
     9.5570   9.5852  10.6964  10.7146  10.8705  10.9111  12.3224  12.3340
    12.4962  12.5152  12.5315  12.6334  13.2445  13.3023  13.5215  13.5450

          k = 0.0000 0.0000-0.6263 (  5252 PWs)   bands (ev):

   -32.6151 -32.6151 -32.2862 -32.2862 -32.1352 -32.1352 -31.6964 -31.6964
   -13.4536 -13.4536 -13.1222 -13.1222 -13.0404 -13.0404 -12.6260 -12.6260
    -9.4602  -9.4602  -9.2514  -9.2514  -9.0615  -9.0615  -8.8677  -8.8677
    -8.7451  -8.7451  -8.6895  -8.6895  -8.4737  -8.4737  -8.2054  -8.2054
     3.6583   3.6583   4.4710   4.4710   5.4862   5.4862   5.6326   5.6326
     6.9905   6.9905   7.5450   7.5450   7.8182   7.8182   8.7835   8.7835
     9.1730   9.1730  10.4620  10.4620  10.9417  10.9417  12.2798  12.2798
    12.3986  12.3986  12.8440  12.8440  13.2478  13.2478  13.4822  13.4822

          k = 0.0000 0.5773 0.0000 (  5253 PWs)   bands (ev):

   -32.6029 -32.6029 -32.2771 -32.2771 -32.1188 -32.1188 -31.6840 -31.6840
   -13.4828 -13.4750 -13.2171 -13.2068 -13.0331 -13.0267 -12.6639 -12.6473
    -9.4203  -9.3995  -9.3529  -9.3201  -9.1349  -9.1020  -9.0244  -8.9922
    -8.9440  -8.8924  -8.7775  -8.7688  -8.4637  -8.4530  -8.3482  -8.3329
     3.6422   3.6533   5.1725   5.3030   6.1234   6.1992   6.4089   6.4675
     6.5523   6.6056   6.8636   6.9202   7.6770   7.9128   8.1149   8.1505
     8.8102   8.9778  10.4128  10.4534  11.3263  11.3776  12.1225  12.1513
    12.4315  12.4494  12.7226  12.7731  13.5259  13.6293  13.8063  13.8628

          k = 0.0000 0.5773 0.3132 (  5250 PWs)   bands (ev):

   -32.6021 -32.6021 -32.2755 -32.2755 -32.1207 -32.1207 -31.6847 -31.6847
   -13.4789 -13.4688 -13.2044 -13.1924 -13.0489 -13.0409 -12.6732 -12.6621
    -9.4416  -9.3675  -9.3370  -9.3074  -9.1741  -9.1011  -9.0407  -8.9953
    -8.9089  -8.8156  -8.7913  -8.7480  -8.4947  -8.4623  -8.3778  -8.3498
     4.0305   4.0533   5.3202   5.4110   5.7145   5.7489   6.2422   6.3063
     6.5922   6.6193   6.8347   7.0031   7.6431   7.8001   8.3696   8.4367
     8.6140   8.7189   9.8093   9.8314  11.2839  11.3874  12.4165  12.4490
    12.5308  12.5883  12.8306  12.8453  13.2538  13.2919  13.9852  14.0374

          k = 0.0000 0.5773-0.6263 (  5272 PWs)   bands (ev):

   -32.6015 -32.6014 -32.2739 -32.2739 -32.1225 -32.1224 -31.6853 -31.6853
   -13.4790 -13.4658 -13.1888 -13.1760 -13.0643 -13.0581 -12.6858 -12.6699
    -9.4871  -9.3681  -9.3388  -9.2811  -9.1555  -9.1216  -9.0325  -8.9823
    -8.8586  -8.8218  -8.7751  -8.7186  -8.5125  -8.4628  -8.4019  -8.3657
     4.5130   4.5881   4.9688   5.0267   5.6948   5.7055   6.1092   6.1553
     6.6265   6.7241   7.1440   7.2578   7.6749   7.7685   8.0480   8.0532
     8.4890   8.6197   9.4544   9.5240  11.3165  11.4528  11.9382  11.9486
    13.0127  13.0816  13.1931  13.2624  13.4229  13.4475  13.6487  13.6897

          k = 0.0000-1.1547 0.0000 (  5284 PWs)   bands (ev):

   -32.5893 -32.5893 -32.2631 -32.2631 -32.1076 -32.1076 -31.6728 -31.6728
   -13.5070 -13.5070 -13.2491 -13.2491 -13.0771 -13.0771 -12.7185 -12.7185
    -9.4685  -9.4685  -9.3851  -9.3851  -9.1711  -9.1711  -9.0766  -9.0766
    -8.9848  -8.9848  -8.8320  -8.8320  -8.5273  -8.5273  -8.4074  -8.4074
     5.0598   5.0598   5.3656   5.3656   5.7713   5.7713   5.9079   5.9079
     6.1651   6.1651   6.4309   6.4309   7.4872   7.4872   8.0973   8.0973
     9.2725   9.2725  10.6361  10.6361  10.8287  10.8287  12.0630  12.0630
    12.5238  12.5238  12.6221  12.6221  13.4529  13.4529  14.2562  14.2562

          k = 0.0000-1.1547 0.3132 (  5252 PWs)   bands (ev):

   -32.5890 -32.5890 -32.2618 -32.2618 -32.1089 -32.1089 -31.6731 -31.6731
   -13.5107 -13.5063 -13.2499 -13.2414 -13.0902 -13.0816 -12.7280 -12.7197
    -9.5023  -9.4871  -9.4015  -9.3884  -9.2237  -9.1875  -9.0866  -9.0402
    -8.9427  -8.9181  -8.8471  -8.7433  -8.5399  -8.4877  -8.4456  -8.4011
     4.9669   4.9962   5.2280   5.2634   5.7807   5.7957   5.9467   5.9976
     6.3610   6.4115   6.6875   6.7284   7.4147   7.4566   8.1022   8.1354
     9.1117   9.1585   9.8702   9.9290  10.8081  10.8828  11.8178  11.9610
    12.3838  12.4295  12.6213  12.7038  13.8754  13.9991  14.6171  14.6839

          k = 0.0000-1.1547-0.6263 (  5272 PWs)   bands (ev):

   -32.5887 -32.5887 -32.2605 -32.2605 -32.1103 -32.1103 -31.6734 -31.6734
   -13.5100 -13.5100 -13.2421 -13.2421 -13.0946 -13.0946 -12.7293 -12.7293
    -9.5166  -9.5166  -9.4060  -9.4060  -9.2383  -9.2383  -9.0487  -9.0487
    -8.8832  -8.8832  -8.7589  -8.7589  -8.5087  -8.5087  -8.4298  -8.4298
     4.9597   4.9597   5.1992   5.1992   5.6492   5.6492   6.0838   6.0838
     6.5734   6.5734   7.0358   7.0358   7.4160   7.4160   8.2300   8.2300
     8.7914   8.7914   9.3546   9.3546  10.8333  10.8333  11.4558  11.4558
    13.0243  13.0243  13.4599  13.4599  13.5699  13.5699  14.0738  14.0738

          k = 0.2500 0.1443 0.0000 (  5279 PWs)   bands (ev):

   -32.6164 -32.6164 -32.2910 -32.2910 -32.1300 -32.1300 -31.6953 -31.6953
   -13.4588 -13.4555 -13.1827 -13.1812 -12.9873 -12.9817 -12.6026 -12.5978
    -9.4502  -9.4403  -9.3060  -9.2948  -9.1125  -9.0681  -8.9207  -8.8730
    -8.8011  -8.7773  -8.6451  -8.6356  -8.3924  -8.3633  -8.2377  -8.2264
     2.7700   2.7857   4.7792   4.8170   6.1313   6.2075   6.3862   6.4644
     6.7788   6.8182   7.0155   7.0362   7.7217   7.7861   8.6963   8.7524
     9.6381   9.6799  10.6868  10.7138  11.0432  11.0612  12.1473  12.2012
    12.4875  12.5211  12.7551  12.8039  13.1126  13.1513  13.3585  13.4374

[...]
    12.5346  12.5978  13.1553  13.2191  13.2399  13.3012  13.8057  13.8430

          k = 0.2500 0.7217 0.3132 (  5250 PWs)   bands (ev):

   -32.2582 -32.2582 -32.2447 -32.2447 -32.1487 -32.1487 -32.1425 -32.1425
   -13.1922 -13.1792 -13.1709 -13.1644 -13.0373 -13.0303 -13.0080 -12.9991
    -9.2364  -9.2244  -9.2195  -9.1903  -9.0545  -9.0285  -9.0207  -8.9889
    -8.8525  -8.8309  -8.7672  -8.7580  -8.6034  -8.5925  -8.5532  -8.5433
     4.7320   4.7696   4.7829   4.7985   5.6803   5.7243   6.5183   6.5608
     6.8172   6.8680   6.8953   6.9824   7.1765   7.2658   7.9756   8.0501
     8.4726   8.5040   8.5778   8.6449  11.1171  11.1278  11.5269  11.5612
    12.8695  12.9325  12.9516  13.0008  13.8085  13.8485  14.1886  14.2516

          k = 0.2500 0.7217-0.6263 (  5252 PWs)   bands (ev):

   -32.2513 -32.2512 -32.2394 -32.2394 -32.1524 -32.1524 -32.1513 -32.1513
   -13.1587 -13.1496 -13.1383 -13.1333 -13.0625 -13.0606 -13.0471 -13.0461
    -9.2226  -9.2097  -9.1499  -9.1368  -9.1199  -9.1015  -9.0582  -9.0191
    -8.7935  -8.7426  -8.7082  -8.6766  -8.6520  -8.6316  -8.6175  -8.6052
     5.0722   5.1266   5.1943   5.2216   5.7249   5.7543   5.8473   5.8783
     6.7453   6.8141   6.9876   7.0575   7.1531   7.2493   7.5285   7.5629
     8.1561   8.2136   8.8317   8.8600  10.7382  10.7498  11.6096  11.6200
    13.1096  13.1234  13.3828  13.4616  14.2411  14.3291  14.6359  14.6688

          k = 0.2500-1.0104 0.0000 (  5254 PWs)   bands (ev):

   -32.2506 -32.2506 -32.2329 -32.2329 -32.1354 -32.1354 -32.1228 -32.1228
   -13.2462 -13.2395 -13.2080 -13.1982 -13.0792 -13.0751 -13.0397 -13.0379
    -9.2695  -9.2648  -9.2601  -9.2522  -9.1394  -9.1325  -9.0963  -9.0885
    -8.9681  -8.9573  -8.8691  -8.8590  -8.7291  -8.7179  -8.4919  -8.4886
     4.9821   5.0690   5.3190   5.4256   5.5320   5.5594   6.3226   6.4113
     6.8349   6.9017   6.9398   6.9761   7.3705   7.4539   7.7801   7.8494
     8.3629   8.5260   8.9367   8.9723  10.9391  10.9818  11.6345  11.6747
    12.7000  12.7515  13.0849  13.1629  14.0306  14.0897  14.8042  14.9317

          k = 0.2500-1.0104 0.3132 (  5260 PWs)   bands (ev):

   -32.2440 -32.2440 -32.2302 -32.2302 -32.1370 -32.1370 -32.1306 -32.1306
   -13.2248 -13.2133 -13.2046 -13.1976 -13.0901 -13.0876 -13.0665 -13.0521
    -9.2998  -9.2856  -9.2586  -9.2146  -9.1627  -9.1607  -9.1431  -9.1065
    -8.9392  -8.9180  -8.7939  -8.7728  -8.6793  -8.6720  -8.5814  -8.5709
     5.1583   5.2532   5.2675   5.3418   5.7828   5.8031   6.2425   6.2955
     6.6815   6.7665   6.9370   7.0754   7.4858   7.5241   7.6630   7.7559
     8.2886   8.4396   8.8865   9.0009  10.5643  10.5983  11.6835  11.7332
    12.5872  12.6583  12.8810  12.9585  13.8773  13.9368  14.7646  14.8116

          k = 0.2500-1.0104-0.6263 (  5260 PWs)   bands (ev):

   -32.2378 -32.2378 -32.2259 -32.2259 -32.1397 -32.1397 -32.1386 -32.1386
   -13.2022 -13.1990 -13.1842 -13.1814 -13.1039 -13.1025 -13.0890 -13.0873
    -9.3242  -9.2976  -9.2538  -9.2240  -9.2020  -9.1894  -9.1383  -9.0995
    -8.8356  -8.7917  -8.7603  -8.7170  -8.7149  -8.6751  -8.6674  -8.6436
     5.3195   5.3657   5.4123   5.5201   5.9228   5.9489   6.1142   6.1800
     6.4258   6.4963   7.1150   7.1742   7.5697   7.6265   7.8005   7.8610
     8.0125   8.0580   8.7855   8.8271  10.4354  10.4428  11.4545  11.4843
    12.7489  12.8341  13.4020  13.4440  13.4595  13.6040  13.9544  14.0002

          k = 0.2500-0.4330 0.0000 (  5251 PWs)   bands (ev):

   -32.2846 -32.2846 -32.2280 -32.2280 -32.1503 -32.1503 -32.1308 -32.1308
   -13.2183 -13.2052 -13.1792 -13.1743 -13.0994 -13.0975 -12.8941 -12.8892
    -9.2661  -9.2561  -9.2294  -9.2109  -9.1065  -9.0915  -8.9431  -8.9285
    -8.8316  -8.8227  -8.7869  -8.7787  -8.6906  -8.6833  -8.4327  -8.4292
     3.4960   3.5225   5.6265   5.8044   5.8328   5.8700   6.4421   6.5661
     6.7438   6.9640   7.1456   7.1783   7.6228   7.6925   8.0030   8.0272
     8.2186   8.4094   9.3486   9.3932  10.9780  11.0630  12.2084  12.2364
    12.2960  12.3564  13.0951  13.1618  13.6042  13.6396  13.8015  13.8966

          k = 0.2500-0.4330 0.3132 (  5259 PWs)   bands (ev):

   -32.2759 -32.2759 -32.2266 -32.2266 -32.1594 -32.1594 -32.1321 -32.1321
   -13.2173 -13.2077 -13.1407 -13.1335 -13.1095 -13.1057 -12.9344 -12.9225
    -9.2842  -9.2642  -9.1916  -9.1787  -9.1693  -9.1532  -8.8643  -8.8354
    -8.8285  -8.7969  -8.7622  -8.7482  -8.7021  -8.6835  -8.5088  -8.5006
     3.7905   3.8337   5.7253   5.7797   5.7996   5.8466   6.2100   6.3074
     6.8324   6.8728   6.9305   7.1797   7.5443   7.6105   8.0402   8.0703
     8.1328   8.2202   9.2188   9.2410  11.0220  11.1083  11.7979  11.9212
    12.1842  12.2013  13.3353  13.3759  13.6936  13.7491  13.9966  14.0498

          k = 0.2500-0.4330-0.6263 (  5266 PWs)   bands (ev):

   -32.2657 -32.2657 -32.2249 -32.2249 -32.1702 -32.1702 -32.1334 -32.1334
   -13.2160 -13.2111 -13.1181 -13.1151 -13.0767 -13.0694 -12.9896 -12.9891
    -9.3375  -9.2947  -9.2467  -9.1920  -9.0141  -8.9892  -8.9644  -8.9265
    -8.7868  -8.7482  -8.7279  -8.6973  -8.6897  -8.6493  -8.6010  -8.5899
     4.3234   4.3555   5.0916   5.1068   5.7774   5.8663   6.2175   6.2926
     7.0036   7.0628   7.3789   7.3844   7.4110   7.4994   8.0216   8.0487
     8.0698   8.1186   8.8044   8.8176  10.4947  10.5264  11.7102  11.7176
    13.0956  13.1528  13.4306  13.4396  13.4780  13.4915  13.6974  13.7040

          k =-0.5000-0.2887 0.0000 (  5254 PWs)   bands (ev):

   -32.2771 -32.2771 -32.2667 -32.2667 -32.1516 -32.1516 -32.1504 -32.1504
   -13.1790 -13.1790 -13.1683 -13.1683 -12.9357 -12.9357 -12.9268 -12.9268
    -9.2611  -9.2611  -9.2428  -9.2428  -8.8274  -8.8274  -8.8131  -8.8131
    -8.7293  -8.7293  -8.7252  -8.7252  -8.5314  -8.5314  -8.5240  -8.5240
     3.8146   3.8146   3.8489   3.8489   6.3147   6.3147   6.3462   6.3462
     7.1213   7.1213   7.1676   7.1676   7.5976   7.5976   7.6743   7.6743
     9.0520   9.0520   9.1220   9.1220  11.8328  11.8328  11.8485  11.8485
    13.0485  13.0485  13.1241  13.1241  13.8409  13.8409  13.8594  13.8594

          k =-0.5000-0.2887 0.3132 (  5256 PWs)   bands (ev):

   -32.2712 -32.2712 -32.2603 -32.2603 -32.1577 -32.1577 -32.1570 -32.1570
   -13.1530 -13.1493 -13.1416 -13.1381 -12.9692 -12.9659 -12.9608 -12.9584
    -9.2139  -9.2036  -9.1928  -9.1907  -8.9087  -8.8985  -8.8832  -8.8788
    -8.7137  -8.7101  -8.6982  -8.6939  -8.5311  -8.5280  -8.5265  -8.5229
     4.0704   4.0951   4.1120   4.1468   5.8895   5.9294   5.9746   5.9933
     7.0614   7.0865   7.3294   7.3742   7.6202   7.6598   7.7375   7.7786
     8.6567   8.6659   8.7850   8.8252  11.2780  11.2972  11.6425  11.6474
    13.7067  13.7883  13.8183  13.8382  13.8502  13.8647  14.0661  14.0996

          k =-0.5000-0.2887-0.6263 (  5256 PWs)   bands (ev):

   -32.2647 -32.2647 -32.2530 -32.2530 -32.1646 -32.1646 -32.1643 -32.1643
   -13.1070 -13.1070 -13.0922 -13.0922 -13.0142 -13.0142 -13.0131 -13.0131
    -9.1074  -9.1074  -9.0872  -9.0872  -9.0322  -9.0322  -9.0153  -9.0153
    -8.6322  -8.6322  -8.6113  -8.6113  -8.5796  -8.5796  -8.5752  -8.5752
     4.5817   4.5817   4.6214   4.6214   5.3087   5.3087   5.3355   5.3355
     7.4045   7.4045   7.4314   7.4314   7.6846   7.6846   7.7276   7.7276
     8.3006   8.3006   8.3826   8.3826  11.1963  11.1963  11.2159  11.2159
    13.8465  13.8465  13.8667  13.8667  14.0324  14.0324  14.0897  14.0897

          k =-0.5000 0.2887 0.0000 (  5253 PWs)   bands (ev):

   -32.2728 -32.2728 -32.2413 -32.2413 -32.1510 -32.1510 -32.1287 -32.1287
   -13.2303 -13.2194 -13.1770 -13.1696 -13.0524 -13.0490 -12.9351 -12.9273
    -9.2608  -9.2444  -9.2390  -9.2261  -9.1054  -9.0962  -8.9540  -8.9449
    -8.8259  -8.8144  -8.7285  -8.7261  -8.6381  -8.6341  -8.5304  -8.5255
     3.8174   3.8468   5.2803   5.4421   6.1028   6.1529   6.3166   6.3453
     6.6620   6.8347   7.1211   7.1678   7.6088   7.6587   7.8270   7.8785
     8.2469   8.3762   9.0658   9.1062  11.1030  11.1616  11.8342  11.8494
    12.8073  12.8602  13.0570  13.1226  13.8485  13.8528  14.1838  14.2430

          k =-0.5000 0.2887 0.3132 (  5250 PWs)   bands (ev):

   -32.2669 -32.2668 -32.2363 -32.2362 -32.1573 -32.1573 -32.1336 -32.1336
   -13.2164 -13.2039 -13.1504 -13.1414 -13.0719 -13.0648 -12.9662 -12.9595
    -9.2647  -9.2313  -9.2131  -9.1927  -9.1332  -9.1029  -8.9036  -8.8988
    -8.8800  -8.8783  -8.7107  -8.6952  -8.6622  -8.6497  -8.5305  -8.5265
     4.0737   4.1018   5.4134   5.5724   5.8889   5.9289   6.1087   6.1805
     6.6770   6.8338   7.3275   7.3738   7.6205   7.6478   7.6748   7.7306
     8.3416   8.4446   8.7787   8.8206  10.9023  10.9597  11.2784  11.2975
    12.4160  12.5071  13.8388  13.8597  14.0672  14.1005  14.2140  14.2667

          k =-0.5000 0.2887-0.6263 (  5272 PWs)   bands (ev):

   -32.2601 -32.2600 -32.2306 -32.2306 -32.1644 -32.1644 -32.1392 -32.1392
   -13.1913 -13.1862 -13.1045 -13.0948 -13.0939 -13.0914 -13.0142 -13.0132
    -9.2757  -9.2175  -9.1782  -9.1303  -9.1060  -9.0871  -9.0321  -9.0157
    -8.8065  -8.7607  -8.7435  -8.7020  -8.6317  -8.6123  -8.5796  -8.5752
     4.5865   4.6182   5.3091   5.3322   5.5777   5.7076   6.0933   6.1313
     6.8039   6.9484   7.4091   7.4234   7.5772   7.6244   7.6897   7.7242
     8.1567   8.1888   8.3316   8.3626  10.9403  10.9566  11.2021  11.2110
    12.8510  12.8760  13.0988  13.1543  13.8520  13.8676  14.0331  14.0887

          k =-0.5000-1.4434 0.0000 (  5252 PWs)   bands (ev):

   -32.2476 -32.2476 -32.2368 -32.2368 -32.1292 -32.1292 -32.1281 -32.1281
   -13.2313 -13.2313 -13.2177 -13.2177 -13.0528 -13.0528 -13.0486 -13.0486
    -9.2402  -9.2402  -9.2256  -9.2256  -9.1063  -9.1063  -9.0957  -9.0957
    -8.9543  -8.9543  -8.9449  -8.9449  -8.6395  -8.6395  -8.6329  -8.6329
     5.2808   5.2808   5.4429   5.4429   6.1024   6.1024   6.1545   6.1545
     6.6600   6.6600   6.8379   6.8379   7.8173   7.8173   7.8808   7.8808
     8.2450   8.2450   8.3771   8.3771  11.1006  11.1006  11.1683  11.1683
    12.8071  12.8071  12.8627  12.8627  14.3509  14.3509  14.3930  14.3930

          k =-0.5000-1.4434 0.3132 (  5244 PWs)   bands (ev):

   -32.2429 -32.2429 -32.2316 -32.2316 -32.1340 -32.1340 -32.1334 -32.1334
   -13.2186 -13.2132 -13.2052 -13.1998 -13.0750 -13.0718 -13.0658 -13.0637
    -9.2643  -9.2498  -9.2312  -9.2269  -9.1426  -9.1333  -9.1126  -9.1031
    -8.9062  -8.9038  -8.8800  -8.8780  -8.6641  -8.6608  -8.6501  -8.6464
     5.4144   5.4206   5.5743   5.5786   6.0661   6.1044   6.1102   6.1801
     6.6749   6.7555   6.8348   6.9229   7.6530   7.6729   7.7265   7.7545
     8.2125   8.2908   8.3440   8.4466  10.8995  10.9568  11.4161  11.4838
    11.9299  12.0455  12.4137  12.5051  14.5192  14.5549  14.6884  14.7419

          k =-0.5000-1.4434-0.6263 (  5288 PWs)   bands (ev):

   -32.2378 -32.2378 -32.2259 -32.2259 -32.1393 -32.1393 -32.1391 -32.1391
   -13.1940 -13.1940 -13.1828 -13.1828 -13.0942 -13.0942 -13.0919 -13.0919
    -9.2755  -9.2755  -9.2171  -9.2171  -9.1781  -9.1781  -9.1301  -9.1301
    -8.8070  -8.8070  -8.7608  -8.7608  -8.7435  -8.7435  -8.7018  -8.7018
     5.5778   5.5778   5.7081   5.7081   6.0899   6.0899   6.1337   6.1337
     6.8024   6.8024   6.9490   6.9490   7.5745   7.5745   7.6251   7.6251
     8.1524   8.1524   8.2048   8.2048  10.9387  10.9387  10.9602  10.9602
    12.8520  12.8520  12.8835  12.8835  13.0882  13.0882  13.1591  13.1591

          k = 0.0000-0.5773 0.3132 (  5250 PWs)   bands (ev):

   -32.2716 -32.2716 -32.2306 -32.2306 -32.1534 -32.1534 -32.1384 -32.1384
   -13.1985 -13.1907 -13.1563 -13.1484 -13.0977 -13.0930 -12.9542 -12.9394
    -9.2625  -9.2494  -9.1875  -9.1701  -9.1658  -9.1291  -8.9060  -8.8546
    -8.8170  -8.8016  -8.7560  -8.7366  -8.7250  -8.7061  -8.4994  -8.4954
     3.9974   4.0437   5.5231   5.5888   5.8786   5.9054   6.4820   6.5192
     6.5532   6.6024   6.7555   6.8615   7.3510   7.4719   7.9015   7.9098
     8.1939   8.2466   9.4585   9.5015  10.9199  10.9606  12.2702  12.3623
    12.5188  12.5512  13.0347  13.0423  13.5562  13.5635  13.8384  13.8440

          k =-0.2500-0.1443 0.3132 (  5261 PWs)   bands (ev):

   -32.2900 -32.2900 -32.2410 -32.2410 -32.1713 -32.1713 -32.1438 -32.1438
   -13.1875 -13.1823 -13.1111 -13.1038 -13.0607 -13.0557 -12.8789 -12.8698
    -9.2808  -9.2674  -9.1659  -9.1542  -9.1061  -9.0943  -8.7520  -8.7405
    -8.6816  -8.6516  -8.6126  -8.6047  -8.5933  -8.5780  -8.4625  -8.4578
     3.1832   3.2102   4.8831   4.9160   5.2086   5.2201   6.2504   6.2659
     6.9682   7.1768   7.2824   7.4296   7.5221   7.5441   8.4961   8.5764
     8.7478   8.7729   9.5591   9.5744  10.7142  10.7317  12.4062  12.4284
    12.7835  12.8756  13.2933  13.3129  13.6639  13.7077  13.8935  13.9432

          k =-0.2500-0.7217 0.3132 (  5250 PWs)   bands (ev):

   -32.2582 -32.2582 -32.2447 -32.2446 -32.1487 -32.1487 -32.1426 -32.1426
   -13.1885 -13.1800 -13.1706 -13.1632 -13.0378 -13.0311 -13.0123 -12.9981
    -9.2325  -9.2178  -9.2108  -9.1886  -9.0572  -9.0390  -9.0301  -8.9916
    -8.8482  -8.8271  -8.7702  -8.7609  -8.6008  -8.5914  -8.5542  -8.5441
     4.6548   4.7277   4.8312   4.8581   6.1170   6.1872   6.2783   6.2951
     6.4351   6.5189   7.1009   7.2080   7.2426   7.3657   7.5465   7.6117
     8.2582   8.2893   8.9700   9.0379  11.1270  11.1353  11.9978  12.0453
    12.6566  12.6945  13.2004  13.3023  13.7633  13.8062  14.0903  14.1638

          k =-0.2500 1.0104 0.3132 (  5260 PWs)   bands (ev):

   -32.2440 -32.2440 -32.2302 -32.2302 -32.1370 -32.1370 -32.1306 -32.1306
   -13.2262 -13.2127 -13.2033 -13.1965 -13.0924 -13.0883 -13.0648 -13.0526
    -9.2882  -9.2815  -9.2629  -9.2202  -9.1702  -9.1515  -9.1496  -9.1048
    -8.9419  -8.9207  -8.7998  -8.7718  -8.6763  -8.6690  -8.5810  -8.5703
     5.2434   5.3666   5.4004   5.4858   5.6139   5.6601   5.9113   5.9569
     6.7925   6.8960   7.1285   7.2338   7.6118   7.6472   7.6919   7.7274
     8.1195   8.1920   8.8761   8.9947  10.9672  10.9762  11.4864  11.5122
    12.2900  12.3425  12.6796  12.7705  13.9965  14.0442  14.7899  14.8240

          k =-0.2500 0.4330 0.3132 (  5259 PWs)   bands (ev):

   -32.2760 -32.2760 -32.2266 -32.2266 -32.1594 -32.1594 -32.1321 -32.1321
   -13.2181 -13.2078 -13.1446 -13.1328 -13.1083 -13.1056 -12.9303 -12.9234
    -9.2898  -9.2665  -9.1913  -9.1870  -9.1670  -9.1485  -8.8618  -8.8305
    -8.8201  -8.7981  -8.7632  -8.7495  -8.7044  -8.6850  -8.5084  -8.5005
     3.8185   3.8449   5.4469   5.4820   5.6750   5.8345   6.4656   6.5451
     6.6971   6.7930   7.3908   7.4063   7.6966   7.7667   8.0383   8.1727
     8.2994   8.3080   8.8699   8.9060  10.6836  10.7445  11.6264  11.6478
    12.3502  12.4522  13.3111  13.3552  13.6558  13.7184  14.0180  14.0441

          k = 0.5000-0.2887 0.3132 (  5250 PWs)   bands (ev):

   -32.2668 -32.2668 -32.2362 -32.2362 -32.1573 -32.1573 -32.1337 -32.1337
   -13.2141 -13.2037 -13.1484 -13.1406 -13.0749 -13.0648 -12.9683 -12.9601
    -9.2501  -9.2280  -9.2031  -9.1910  -9.1426  -9.1124  -8.9080  -8.9061
    -8.8822  -8.8785  -8.7128  -8.6982  -8.6621  -8.6467  -8.5281  -8.5240
     4.1057   4.1446   5.4203   5.5785   5.9733   5.9917   6.0685   6.1069
     6.7573   6.9221   7.0608   7.0865   7.6704   7.7282   7.7561   7.7778
     8.2145   8.2928   8.6607   8.6725  11.4086  11.4755  11.6441  11.6488
    11.9287  12.0443  13.7111  13.7918  13.8245  13.8563  14.3729  14.4023

     the Fermi energy is    11.3384 ev

!    total energy              =   -2250.62095087 Ry
     Harris-Foulkes estimate   =   -2250.62094873 Ry
     estimated scf accuracy    <          7.0E-09 Ry

     total all-electron energy =    -90254.964319 Ry

     The total energy is the sum of the following terms:

     one-electron contribution =     -24.80443238 Ry
     hartree contribution      =      38.59928966 Ry
     xc contribution           =    -259.44570406 Ry
     ewald contribution        =    -256.89097322 Ry
     one-center paw contrib.   =   -1748.07809176 Ry
     smearing contrib. (-TS)   =      -0.00103911 Ry

     convergence has been achieved in  10 iterations

     Forces acting on atoms (cartesian axes, Ry/au):

     atom    1 type  1   force =     0.00007937    0.00032411    0.00051088
     atom    2 type  1   force =     0.00051436    0.00002981   -0.00007117
     atom    3 type  1   force =    -0.00038924   -0.00007386   -0.00007769
     atom    4 type  1   force =     0.00021476   -0.00014798   -0.00016137
     atom    5 type  2   force =    -0.00014114   -0.00002906   -0.00022345
     atom    6 type  2   force =     0.00023438    0.00027007   -0.00039958
     atom    7 type  2   force =    -0.00001496   -0.00038215    0.00036865
     atom    8 type  2   force =    -0.00017827   -0.00005185   -0.00034950
     atom    9 type  2   force =    -0.00032609   -0.00005659    0.00000997
     atom   10 type  2   force =    -0.00013573   -0.00020548    0.00073868
     atom   11 type  2   force =     0.00023266   -0.00002739   -0.00005670
     atom   12 type  2   force =    -0.00043414    0.00024404    0.00011212
     atom   13 type  2   force =     0.00014515    0.00023800   -0.00030971
     atom   14 type  2   force =     0.00019889   -0.00013168   -0.00009113

     Total force =     0.001723     Total SCF correction =     0.000222
     SCF correction compared to forces is large: reduce conv_thr to get better values


     Computing stress (Cartesian axis) and pressure

     Message from routine stres:
     noncollinear stress + GGA not implemented

     Writing output data file 2306.save
 
     init_run     :      6.63s CPU      6.87s WALL (       2 calls)
     electrons    :   2301.48s CPU   2357.07s WALL (      46 calls)
     update_pot   :     15.73s CPU     20.24s WALL (      44 calls)
     forces       :    112.87s CPU    113.23s WALL (      46 calls)

     Called by init_run:
     wfcinit      :      5.55s CPU      5.71s WALL (       2 calls)
     potinit      :      0.46s CPU      0.49s WALL (       2 calls)

     Called by electrons:
     c_bands      :   1960.35s CPU   1997.38s WALL (     343 calls)
     sum_band     :    240.15s CPU    246.12s WALL (     343 calls)
     v_of_rho     :      1.28s CPU      1.30s WALL (     384 calls)
     newd         :     33.60s CPU     33.68s WALL (     384 calls)
     PAW_pot      :     85.11s CPU     87.10s WALL (     428 calls)
     mix_rho      :      1.54s CPU      1.57s WALL (     343 calls)

     Called by c_bands:
     init_us_2    :      7.59s CPU      7.76s WALL (   28008 calls)
     cegterg      :   1814.25s CPU   1849.09s WALL (   12348 calls)

     Called by sum_band:
     sum_band:bec :     62.60s CPU     62.66s WALL (   13932 calls)
     addusdens    :      9.89s CPU      9.93s WALL (     343 calls)

     Called by *egterg:
     h_psi        :    974.64s CPU   1007.71s WALL (   55745 calls)
     s_psi        :    106.97s CPU    107.26s WALL (   55745 calls)
     g_psi        :      5.74s CPU      5.77s WALL (   43325 calls)
     cdiaghg      :    439.38s CPU    439.99s WALL (   53909 calls)

     Called by h_psi:
     h_psi:pot    :    965.46s CPU    998.44s WALL (   55745 calls)
     h_psi:calbec :     71.08s CPU     72.24s WALL (   55745 calls)
     vloc_psi     :    781.18s CPU    812.71s WALL (   55745 calls)
     add_vuspsi   :    112.84s CPU    113.19s WALL (   55745 calls)

     General routines
     calbec       :    112.10s CPU    113.75s WALL (   76301 calls)
     fft          :      1.07s CPU      1.12s WALL (    7560 calls)
     fftw         :    735.64s CPU    764.38s WALL (10494948 calls)
     davcio       :      0.01s CPU      0.02s WALL (      72 calls)
 
     Parallel routines
     fft_scatter  :    341.29s CPU    358.04s WALL (10502508 calls)
 
     PWSCF        : 41m 4.23s CPU    43m57.80s WALL

 
   This run was terminated on:  17:48:18  13Oct2022            

=------------------------------------------------------------------------------=
   JOB DONE.
=------------------------------------------------------------------------------=
Removing 2306 from /home/shaharpit/tmp
