
     Program PWSCF v.6.1 (svn rev. 13369) starts on 30Nov2022 at 13:42:28 

     This program is part of the open-source Quantum ESPRESSO suite
     for quantum simulation of materials; please cite
         "P. Giannozzi et al., J. Phys.:Condens. Matter 21 395502 (2009);
          URL http://www.quantum-espresso.org", 
     in publications or presentations arising from this work. More details at
     http://www.quantum-espresso.org/quote

     Parallel version (MPI), running on     4 processors
     R & G space division:  proc/nbgrp/npool/nimage =       4
     Reading input from ./fcc_100_1.1.in
Warning: card &IONS ignored
Warning: card 	ION_DYNAMICS='BFGS', ignored
Warning: card / ignored
Warning: card &CELL ignored
Warning: card / ignored

     Current dimensions of program PWSCF are:
     Max number of different atomic species (ntypx) = 10
     Max number of k-points (npk) =  40000
     Max angular momentum in pseudopotentials (lmaxx) =  3
               file Gd.rel-pbe-spdn-kjpaw_psl.1.0.0.UPF: wavefunction(s)  5P 5P renormalized
               file H.pbe-kjpaw_psl.0.1.UPF: wavefunction(s)  1S renormalized

     Subspace diagonalization in iterative solution of the eigenvalue problem:
     a serial algorithm will be used

 
     Parallelization info
     --------------------
     sticks:   dense  smooth     PW     G-vecs:    dense   smooth      PW
     Min         425     425    122                13229    13229    2054
     Max         426     426    123                13232    13232    2055
     Sum        1701    1701    489                52923    52923    8217
 


     bravais-lattice index     =            0
     lattice parameter (alat)  =      10.3447  a.u.
     unit-cell volume          =    1107.0280 (a.u.)^3
     number of atoms/cell      =           12
     number of atomic types    =            2
     number of electrons       =        52.00
     number of Kohn-Sham states=           62
     kinetic-energy cutoff     =      50.0000  Ry
     charge density cutoff     =     200.0000  Ry
     convergence threshold     =      1.0E-06
     mixing beta               =       0.7000
     number of iterations used =            8  plain     mixing
     Exchange-correlation      =  SLA  PW   PBX  PBC ( 1  4  3  4 0 0)
     Non magnetic calculation with spin-orbit


     celldm(1)=  10.344739  celldm(2)=   0.000000  celldm(3)=   0.000000
     celldm(4)=   0.000000  celldm(5)=   0.000000  celldm(6)=   0.000000

     crystal axes: (cart. coord. in units of alat)
               a(1) = (   1.000000   0.000000   0.000000 )  
               a(2) = (   0.000000   1.000000   0.000000 )  
               a(3) = (   0.000000   0.000000   1.000000 )  

     reciprocal axes: (cart. coord. in units 2 pi/alat)
               b(1) = (  1.000000  0.000000  0.000000 )  
               b(2) = (  0.000000  1.000000  0.000000 )  
               b(3) = (  0.000000  0.000000  1.000000 )  


     PseudoPot. # 1 for Gd read from file:
     /home/shaharpit/MeamGdH/dft/qe_potentials/Gd.rel-pbe-spdn-kjpaw_psl.1.0.0.UPF
     MD5 check sum: cf50ec46d1536b4a0251694df1946a53
     Pseudo is Projector augmented-wave + core cor, Zval = 11.0
     Generated using "atomic" code by A. Dal Corso  v.6.2.2
     Shape of augmentation charge: PSQ
     Using radial grid of 1263 points, 10 beta functions with: 
                l(1) =   0
                l(2) =   0
                l(3) =   1
                l(4) =   1
                l(5) =   1
                l(6) =   1
                l(7) =   2
                l(8) =   2
                l(9) =   2
               l(10) =   2
     Q(r) pseudized with 0 coefficients 


     PseudoPot. # 2 for  H read from file:
     /home/shaharpit/MeamGdH/dft/qe_potentials/H.pbe-kjpaw_psl.0.1.UPF
     MD5 check sum: fbb168fef676c0aaadbafd73f5b1efa8
     Pseudo is Projector augmented-wave, Zval =  1.0
     Generated using "atomic" code by A. Dal Corso  v.5.0.2 svn rev. 9415
     Shape of augmentation charge: PSQ
     Using radial grid of  929 points,  2 beta functions with: 
                l(1) =   0
                l(2) =   0
     Q(r) pseudized with 0 coefficients 


     atomic species   valence    mass     pseudopotential
        Gd            11.00   157.25000     Gd( 1.00)
        H              1.00     1.00794      H( 1.00)

      2 Sym. Ops. (no inversion) found



   Cartesian axes

     site n.     atom                  positions (alat units)
         1           Gd  tau(   1) = (   0.0000000   0.0000000   0.0000000  )
         2           Gd  tau(   2) = (   0.0000000   0.5000000   0.5000000  )
         3           Gd  tau(   3) = (   0.5000000   0.0000000   0.5000000  )
         4           Gd  tau(   4) = (   0.5000000   0.5000000   0.0000000  )
         5           H   tau(   5) = (   0.2500000   0.7539000   0.7539000  )
         6           H   tau(   6) = (   0.2500000   0.7501000   0.2500000  )
         7           H   tau(   7) = (   0.2500000   0.2500000   0.2500000  )
         8           H   tau(   8) = (   0.2500000   0.2500000   0.7501000  )
         9           H   tau(   9) = (   0.7501000   0.2500000   0.7501000  )
        10           H   tau(  10) = (   0.7501000   0.2500000   0.2500000  )
        11           H   tau(  11) = (   0.7501000   0.7501000   0.2500000  )
        12           H   tau(  12) = (   0.7501000   0.7501000   0.7501000  )

     number of k points=    24  gaussian smearing, width (Ry)=  0.0100
                       cart. coord. in units 2pi/alat
        k(    1) = (   0.0000000   0.0000000   0.0000000), wk =   0.0156250
        k(    2) = (   0.0000000   0.0000000   0.2500000), wk =   0.0625000
        k(    3) = (   0.0000000   0.0000000  -0.5000000), wk =   0.0312500
        k(    4) = (   0.0000000   0.2500000   0.2500000), wk =   0.0312500
        k(    5) = (   0.0000000   0.2500000  -0.5000000), wk =   0.0625000
        k(    6) = (   0.0000000  -0.5000000  -0.5000000), wk =   0.0156250
        k(    7) = (   0.2500000   0.2500000   0.2500000), wk =   0.0312500
        k(    8) = (   0.2500000   0.2500000  -0.5000000), wk =   0.0625000
        k(    9) = (   0.2500000  -0.5000000  -0.5000000), wk =   0.0312500
        k(   10) = (  -0.5000000  -0.5000000  -0.5000000), wk =   0.0156250
        k(   11) = (   0.2500000   0.0000000   0.0000000), wk =   0.0312500
        k(   12) = (  -0.5000000   0.0000000   0.0000000), wk =   0.0156250
        k(   13) = (   0.0000000   0.2500000  -0.2500000), wk =   0.0312500
        k(   14) = (   0.2500000   0.0000000  -0.2500000), wk =   0.0625000
        k(   15) = (  -0.2500000   0.0000000  -0.2500000), wk =   0.0625000
        k(   16) = (   0.2500000   0.0000000   0.5000000), wk =   0.0625000
        k(   17) = (  -0.5000000  -0.2500000   0.0000000), wk =   0.0625000
        k(   18) = (  -0.5000000   0.0000000   0.5000000), wk =   0.0312500
        k(   19) = (  -0.2500000   0.2500000  -0.2500000), wk =   0.0625000
        k(   20) = (   0.2500000  -0.2500000  -0.2500000), wk =   0.0312500
        k(   21) = (  -0.2500000   0.2500000   0.5000000), wk =   0.0625000
        k(   22) = (  -0.5000000  -0.2500000   0.2500000), wk =   0.0312500
        k(   23) = (   0.5000000  -0.2500000  -0.2500000), wk =   0.0312500
        k(   24) = (  -0.5000000   0.2500000   0.5000000), wk =   0.0625000

     Dense  grid:    52923 G-vectors     FFT dimensions: (  48,  48,  48)

     Estimated max dynamical RAM per process >     131.82MB

     Estimated total allocated dynamical RAM >     527.29MB

     Check: negative/imaginary core charge=   -0.000002    0.000000

     Initial potential from superposition of free atoms

     starting charge   51.92374, renormalised to   52.00000
     Starting wfc are  120 randomized atomic wfcs
     Checking if some PAW data can be deallocated... 

     total cpu time spent up to now is        8.0 secs

     per-process dynamical memory:   156.9 Mb

     Self-consistent Calculation

     iteration #  1     ecut=    50.00 Ry     beta=0.70
     Davidson diagonalization with overlap
     ethr =  1.00E-02,  avg # of iterations =  2.0

     total cpu time spent up to now is       17.8 secs

     total energy              =   -2248.28132675 Ry
     Harris-Foulkes estimate   =   -2248.60816876 Ry
     estimated scf accuracy    <       0.56658494 Ry

     iteration #  2     ecut=    50.00 Ry     beta=0.70
     Davidson diagonalization with overlap
     ethr =  1.09E-03,  avg # of iterations =  2.9

     total cpu time spent up to now is       28.6 secs

     total energy              =   -2248.38934493 Ry
     Harris-Foulkes estimate   =   -2248.39666308 Ry
     estimated scf accuracy    <       0.01202997 Ry

     iteration #  3     ecut=    50.00 Ry     beta=0.70
     Davidson diagonalization with overlap
     ethr =  2.31E-05,  avg # of iterations =  2.9

     total cpu time spent up to now is       40.9 secs

     total energy              =   -2248.39304795 Ry
     Harris-Foulkes estimate   =   -2248.39308115 Ry
     estimated scf accuracy    <       0.00032135 Ry

     iteration #  4     ecut=    50.00 Ry     beta=0.70
     Davidson diagonalization with overlap
     ethr =  6.18E-07,  avg # of iterations =  8.2

     total cpu time spent up to now is       57.7 secs

     total energy              =   -2248.39312625 Ry
     Harris-Foulkes estimate   =   -2248.39327797 Ry
     estimated scf accuracy    <       0.00036562 Ry

     iteration #  5     ecut=    50.00 Ry     beta=0.70
     Davidson diagonalization with overlap
     ethr =  6.18E-07,  avg # of iterations =  3.0

     total cpu time spent up to now is       68.6 secs

     total energy              =   -2248.39319687 Ry
     Harris-Foulkes estimate   =   -2248.39319866 Ry
     estimated scf accuracy    <       0.00000803 Ry

     iteration #  6     ecut=    50.00 Ry     beta=0.70
     Davidson diagonalization with overlap
     ethr =  1.54E-08,  avg # of iterations =  3.0

     total cpu time spent up to now is       81.0 secs

     total energy              =   -2248.39319946 Ry
     Harris-Foulkes estimate   =   -2248.39319981 Ry
     estimated scf accuracy    <       0.00000113 Ry

     iteration #  7     ecut=    50.00 Ry     beta=0.70
     Davidson diagonalization with overlap
     ethr =  2.17E-09,  avg # of iterations =  2.8

     total cpu time spent up to now is       93.3 secs

     End of self-consistent calculation

          k = 0.0000 0.0000 0.0000 (  6619 PWs)   bands (ev):

   -35.9215 -35.9215 -35.8894 -35.8894 -35.8837 -35.8837 -35.8734 -35.8734
   -16.6852 -16.6852 -16.6794 -16.6794 -16.6713 -16.6713 -16.5216 -16.5216
   -12.5360 -12.5360 -12.5325 -12.5325 -12.5300 -12.5300 -12.3142 -12.3142
   -12.3104 -12.3104 -12.3075 -12.3075 -12.1438 -12.1438 -12.1432 -12.1432
     1.0261   1.0261   3.7665   3.7665   3.7666   3.7666   3.7669   3.7669
     4.9246   4.9246   4.9265   4.9265   4.9281   4.9281   6.8142   6.8142
     6.8154   6.8154   6.8154   6.8154   7.1269   7.1269   9.5406   9.5406
     9.5420   9.5421   9.7005   9.7005  11.8562  11.8565

          k = 0.0000 0.0000 0.2500 (  6595 PWs)   bands (ev):

   -35.9164 -35.9164 -35.8912 -35.8912 -35.8860 -35.8860 -35.8744 -35.8744
   -16.6835 -16.6835 -16.6742 -16.6742 -16.6551 -16.6551 -16.5449 -16.5448
   -12.5149 -12.5148 -12.5095 -12.5093 -12.4808 -12.4807 -12.3394 -12.3392
   -12.3335 -12.3333 -12.2866 -12.2866 -12.2059 -12.2058 -12.1683 -12.1682
     1.4264   1.4266   3.9185   3.9191   3.9196   3.9198   3.9589   3.9591
     4.0410   4.0411   4.7463   4.7470   4.7480   4.7489   6.1044   6.1046
     7.2001   7.2005   7.2006   7.2011   7.7386   7.7387   9.7856   9.7857
     9.9105   9.9125  11.0630  11.0650  11.1084  11.1087

          k = 0.0000 0.0000-0.5000 (  6568 PWs)   bands (ev):

   -35.9079 -35.9079 -35.8978 -35.8978 -35.8872 -35.8872 -35.8751 -35.8751
   -16.6829 -16.6829 -16.6732 -16.6732 -16.6059 -16.6059 -16.5956 -16.5956
   -12.4867 -12.4867 -12.4780 -12.4780 -12.3762 -12.3762 -12.3677 -12.3677
   -12.3525 -12.3525 -12.3427 -12.3427 -12.2328 -12.2328 -12.2229 -12.2229
     2.5080   2.5080   2.5201   2.5201   4.2257   4.2257   4.2275   4.2275
     4.4151   4.4151   4.4155   4.4155   4.8392   4.8392   4.8562   4.8562
     7.7901   7.7901   7.7911   7.7911   9.3584   9.3584   9.3707   9.3707
    10.2809  10.2809  10.2854  10.2854  10.5712  10.5729

          k = 0.0000 0.2500 0.2500 (  6624 PWs)   bands (ev):

   -35.9123 -35.9123 -35.8915 -35.8915 -35.8883 -35.8883 -35.8759 -35.8759
   -16.6776 -16.6775 -16.6602 -16.6602 -16.6564 -16.6564 -16.5649 -16.5648
   -12.5007 -12.5007 -12.4778 -12.4777 -12.4772 -12.4772 -12.3391 -12.3391
   -12.3050 -12.3049 -12.3047 -12.3047 -12.2700 -12.2700 -12.1761 -12.1761
     1.7781   1.7781   3.9316   3.9318   3.9615   3.9626   3.9651   3.9660
     4.1626   4.1626   4.1670   4.1670   4.6523   4.6524   5.6194   5.6195
     7.5498   7.5499   7.9116   7.9116   7.9121   7.9122   9.7771   9.7771
    10.0555  10.0555  11.1419  11.1428  11.2643  11.2652

          k = 0.0000 0.2500-0.5000 (  6610 PWs)   bands (ev):

   -35.9055 -35.9055 -35.8957 -35.8957 -35.8895 -35.8895 -35.8772 -35.8772
   -16.6725 -16.6724 -16.6629 -16.6628 -16.6178 -16.6177 -16.6074 -16.6073
   -12.4829 -12.4827 -12.4782 -12.4780 -12.3874 -12.3872 -12.3825 -12.3823
   -12.3354 -12.3351 -12.3302 -12.3300 -12.2361 -12.2359 -12.2305 -12.2303
     2.7267   2.7272   2.7374   2.7379   3.9598   3.9618   3.9628   3.9649
     4.4144   4.4163   4.4165   4.4186   4.7661   4.7663   4.7800   4.7804
     8.1097   8.1098   8.1108   8.1109   9.2053   9.2057   9.2124   9.2128
    10.6360  10.6361  10.6394  10.6399  10.6781  10.6806

          k = 0.0000-0.5000-0.5000 (  6632 PWs)   bands (ev):

   -35.9021 -35.9021 -35.8930 -35.8930 -35.8930 -35.8930 -35.8799 -35.8799
   -16.6499 -16.6499 -16.6417 -16.6417 -16.6417 -16.6417 -16.6299 -16.6299
   -12.4470 -12.4470 -12.4469 -12.4469 -12.4457 -12.4457 -12.4457 -12.4457
   -12.2712 -12.2712 -12.2709 -12.2709 -12.2689 -12.2689 -12.2688 -12.2688
     3.2897   3.2897   3.2995   3.2995   3.2998   3.2998   3.3092   3.3092
     4.5800   4.5800   4.5903   4.5903   4.5904   4.5904   4.6012   4.6012
     8.7954   8.7954   8.7982   8.7982   8.7982   8.7982   8.8009   8.8009
    10.6685  10.6685  10.6714  10.6714  10.6720  10.6721

          k = 0.2500 0.2500 0.2500 (  6595 PWs)   bands (ev):

   -35.9088 -35.9088 -35.8933 -35.8933 -35.8883 -35.8883 -35.8775 -35.8775
   -16.6667 -16.6666 -16.6607 -16.6607 -16.6528 -16.6528 -16.5817 -16.5816
   -12.4884 -12.4883 -12.4850 -12.4847 -12.4819 -12.4817 -12.3308 -12.3307
   -12.3013 -12.3012 -12.2974 -12.2972 -12.2938 -12.2937 -12.1750 -12.1750
     2.0559   2.0561   3.6891   3.6900   3.6950   3.6951   3.6984   3.6990
     4.4898   4.4903   4.4922   4.4924   4.4978   4.4986   5.3526   5.3529
     8.1342   8.1343   8.1360   8.1360   8.1419   8.1421   9.8194   9.8195
    10.0182  10.0186  10.7916  10.7921  10.7928  10.7934

          k = 0.2500 0.2500-0.5000 (  6608 PWs)   bands (ev):

   -35.9040 -35.9040 -35.8945 -35.8945 -35.8910 -35.8910 -35.8784 -35.8784
   -16.6658 -16.6657 -16.6563 -16.6563 -16.6267 -16.6265 -16.6161 -16.6161
   -12.4940 -12.4938 -12.4897 -12.4896 -12.4265 -12.4262 -12.4218 -12.4218
   -12.2942 -12.2939 -12.2893 -12.2893 -12.2231 -12.2230 -12.2180 -12.2178
     2.8060   2.8066   2.8170   2.8173   3.5638   3.5647   3.5715   3.5722
     4.6744   4.6750   4.6802   4.6808   4.8178   4.8184   4.8311   4.8315
     8.4520   8.4523   8.4548   8.4551   9.3206   9.3210   9.3279   9.3283
    10.1104  10.1113  10.1124  10.1132  10.3589  10.3597

          k = 0.2500-0.5000-0.5000 (  6572 PWs)   bands (ev):

   -35.9020 -35.9020 -35.8929 -35.8929 -35.8929 -35.8929 -35.8799 -35.8799
   -16.6514 -16.6514 -16.6432 -16.6432 -16.6431 -16.6431 -16.6314 -16.6313
   -12.4809 -12.4809 -12.4808 -12.4806 -12.4749 -12.4748 -12.4746 -12.4746
   -12.2384 -12.2383 -12.2380 -12.2380 -12.2314 -12.2314 -12.2312 -12.2309
     3.0818   3.0820   3.0919   3.0919   3.0922   3.0922   3.1017   3.1020
     4.8385   4.8391   4.8488   4.8488   4.8491   4.8491   4.8597   4.8601
     9.1497   9.1503   9.1531   9.1532   9.1532   9.1533   9.1561   9.1568
     9.9885   9.9886   9.9891   9.9906   9.9914   9.9917

          k =-0.5000-0.5000-0.5000 (  6704 PWs)   bands (ev):

   -35.9020 -35.9020 -35.8929 -35.8929 -35.8929 -35.8929 -35.8799 -35.8799
   -16.6528 -16.6528 -16.6446 -16.6446 -16.6446 -16.6446 -16.6328 -16.6328
   -12.5055 -12.5055 -12.5053 -12.5053 -12.4986 -12.4986 -12.4983 -12.4983
   -12.2110 -12.2110 -12.2106 -12.2106 -12.2029 -12.2029 -12.2025 -12.2025
     2.9219   2.9219   2.9321   2.9321   2.9324   2.9324   2.9421   2.9421
     5.0515   5.0515   5.0614   5.0614   5.0617   5.0617   5.0725   5.0725
     9.5735   9.5735   9.5744   9.5745   9.5749   9.5750   9.5760   9.5762
     9.7597   9.7603   9.7607   9.7609   9.7611   9.7619

          k = 0.2500 0.0000 0.0000 (  6595 PWs)   bands (ev):

   -35.9163 -35.9163 -35.8929 -35.8929 -35.8837 -35.8837 -35.8752 -35.8752
   -16.6797 -16.6797 -16.6790 -16.6790 -16.6540 -16.6540 -16.5449 -16.5449
   -12.5129 -12.5125 -12.5117 -12.5117 -12.4807 -12.4806 -12.3371 -12.3371
   -12.3361 -12.3357 -12.2863 -12.2863 -12.2059 -12.2057 -12.1684 -12.1684
     1.4264   1.4267   3.9189   3.9194   3.9197   3.9201   3.9585   3.9588
     4.0407   4.0408   4.7463   4.7472   4.7480   4.7487   6.1043   6.1047
     7.2000   7.2005   7.2008   7.2013   7.7385   7.7386   9.7855   9.7856
     9.9100   9.9129  11.0629  11.0657  11.1081  11.1081

          k =-0.5000 0.0000 0.0000 (  6568 PWs)   bands (ev):

   -35.9055 -35.9055 -35.9023 -35.9023 -35.8837 -35.8837 -35.8765 -35.8765
   -16.6786 -16.6786 -16.6781 -16.6781 -16.6020 -16.6020 -16.5989 -16.5989
   -12.4831 -12.4831 -12.4818 -12.4818 -12.3735 -12.3735 -12.3718 -12.3718
   -12.3493 -12.3493 -12.3444 -12.3444 -12.2288 -12.2288 -12.2267 -12.2267
     2.5135   2.5135   2.5146   2.5146   4.2258   4.2258   4.2274   4.2274
     4.4151   4.4151   4.4154   4.4154   4.8469   4.8469   4.8485   4.8485
     7.7902   7.7902   7.7910   7.7910   9.3637   9.3638   9.3651   9.3651
    10.2826  10.2826  10.2834  10.2835  10.5709  10.5714

          k = 0.0000 0.2500-0.2500 (  6624 PWs)   bands (ev):

   -35.9123 -35.9123 -35.8915 -35.8915 -35.8883 -35.8883 -35.8759 -35.8759
   -16.6776 -16.6775 -16.6602 -16.6602 -16.6564 -16.6564 -16.5649 -16.5648
   -12.5008 -12.5007 -12.4778 -12.4777 -12.4772 -12.4771 -12.3393 -12.3389
   -12.3051 -12.3049 -12.3047 -12.3044 -12.2701 -12.2699 -12.1761 -12.1760
     1.7778   1.7783   3.9303   3.9317   3.9575   3.9582   3.9703   3.9706
     4.1601   4.1612   4.1684   4.1693   4.6523   4.6526   5.6194   5.6197
     7.5498   7.5499   7.9059   7.9062   7.9173   7.9176   9.7771   9.7771
    10.0542  10.0563  11.1417  11.1421  11.2645  11.2649

          k = 0.2500 0.0000-0.2500 (  6624 PWs)   bands (ev):

   -35.9121 -35.9121 -35.8931 -35.8931 -35.8864 -35.8864 -35.8763 -35.8763
   -16.6767 -16.6766 -16.6637 -16.6637 -16.6538 -16.6537 -16.5649 -16.5649
   -12.5006 -12.5004 -12.4801 -12.4800 -12.4750 -12.4748 -12.3396 -12.3393
   -12.3073 -12.3072 -12.3021 -12.3017 -12.2703 -12.2702 -12.1762 -12.1762
     1.7792   1.7795   3.9336   3.9342   3.9572   3.9594   3.9650   3.9670
     4.1621   4.1639   4.1671   4.1691   4.6506   4.6522   5.6170   5.6175
     7.5489   7.5497   7.9068   7.9072   7.9134   7.9135   9.7788   9.7791
    10.0558  10.0570  11.1415  11.1417  11.2642  11.2684

          k =-0.2500 0.0000-0.2500 (  6624 PWs)   bands (ev):

   -35.9121 -35.9121 -35.8931 -35.8931 -35.8864 -35.8864 -35.8763 -35.8763
   -16.6767 -16.6765 -16.6638 -16.6637 -16.6538 -16.6538 -16.5649 -16.5648
   -12.5008 -12.5005 -12.4802 -12.4801 -12.4751 -12.4750 -12.3392 -12.3390
   -12.3076 -12.3071 -12.3020 -12.3019 -12.2704 -12.2703 -12.1759 -12.1759
     1.7767   1.7770   3.9284   3.9294   3.9612   3.9628   3.9680   3.9703
     4.1606   4.1627   4.1653   4.1673   4.6528   4.6544   5.6215   5.6220
     7.5499   7.5508   7.9101   7.9103   7.9163   7.9167   9.7748   9.7752
    10.0540  10.0550  11.1422  11.1424  11.2581  11.2628

          k = 0.2500 0.0000 0.5000 (  6610 PWs)   bands (ev):

   -35.9055 -35.9055 -35.8957 -35.8957 -35.8895 -35.8895 -35.8772 -35.8772
   -16.6725 -16.6724 -16.6629 -16.6628 -16.6178 -16.6177 -16.6074 -16.6073
   -12.4829 -12.4827 -12.4783 -12.4781 -12.3870 -12.3868 -12.3821 -12.3819
   -12.3357 -12.3355 -12.3306 -12.3304 -12.2360 -12.2358 -12.2304 -12.2303
     2.7263   2.7267   2.7378   2.7382   3.9584   3.9592   3.9652   3.9661
     4.4139   4.4152   4.4179   4.4194   4.7656   4.7662   4.7802   4.7808
     8.1088   8.1092   8.1114   8.1118   9.2041   9.2043   9.2137   9.2140
    10.6344  10.6350  10.6414  10.6419  10.6796  10.6806

          k =-0.5000-0.2500 0.0000 (  6610 PWs)   bands (ev):

   -35.9039 -35.9039 -35.8996 -35.8996 -35.8864 -35.8864 -35.8781 -35.8781
   -16.6682 -16.6681 -16.6680 -16.6680 -16.6139 -16.6139 -16.6103 -16.6103
   -12.4811 -12.4806 -12.4801 -12.4801 -12.3849 -12.3848 -12.3847 -12.3845
   -12.3337 -12.3336 -12.3320 -12.3317 -12.2338 -12.2337 -12.2326 -12.2324
     2.7299   2.7303   2.7343   2.7347   3.9583   3.9595   3.9649   3.9661
     4.4138   4.4152   4.4178   4.4194   4.7708   4.7714   4.7751   4.7757
     8.1088   8.1093   8.1113   8.1117   9.2056   9.2059   9.2121   9.2124
    10.6351  10.6358  10.6408  10.6419  10.6773  10.6795

          k =-0.5000 0.0000 0.5000 (  6632 PWs)   bands (ev):

   -35.9021 -35.9021 -35.8930 -35.8930 -35.8930 -35.8930 -35.8799 -35.8799
   -16.6499 -16.6499 -16.6417 -16.6417 -16.6417 -16.6417 -16.6299 -16.6299
   -12.4507 -12.4507 -12.4506 -12.4506 -12.4419 -12.4419 -12.4417 -12.4417
   -12.2751 -12.2751 -12.2746 -12.2746 -12.2655 -12.2655 -12.2650 -12.2650
     3.2894   3.2894   3.2993   3.2993   3.2999   3.2999   3.3093   3.3093
     4.5818   4.5818   4.5901   4.5901   4.5904   4.5904   4.6001   4.6001
     8.7942   8.7942   8.7969   8.7969   8.7996   8.7996   8.8017   8.8017
    10.6687  10.6695  10.6717  10.6721  10.6755  10.6766

          k =-0.2500 0.2500-0.2500 (  6595 PWs)   bands (ev):

   -35.9088 -35.9088 -35.8933 -35.8933 -35.8883 -35.8883 -35.8775 -35.8775
   -16.6667 -16.6666 -16.6607 -16.6607 -16.6528 -16.6528 -16.5817 -16.5816
   -12.4885 -12.4882 -12.4849 -12.4848 -12.4816 -12.4814 -12.3308 -12.3306
   -12.3016 -12.3013 -12.2976 -12.2973 -12.2938 -12.2935 -12.1752 -12.1752
     2.0588   2.0593   3.6865   3.6878   3.6950   3.6950   3.7020   3.7033
     4.4859   4.4866   4.4922   4.4923   4.4984   4.4991   5.3476   5.3482
     8.1304   8.1307   8.1361   8.1361   8.1412   8.1414   9.8207   9.8207
    10.0194  10.0201  10.7901  10.7911  10.7919  10.7927

          k = 0.2500-0.2500-0.2500 (  6595 PWs)   bands (ev):

   -35.9088 -35.9088 -35.8933 -35.8933 -35.8883 -35.8883 -35.8775 -35.8775
   -16.6666 -16.6666 -16.6607 -16.6607 -16.6528 -16.6528 -16.5818 -16.5817
   -12.4881 -12.4880 -12.4850 -12.4846 -12.4815 -12.4814 -12.3309 -12.3307
   -12.3012 -12.3012 -12.2978 -12.2976 -12.2939 -12.2936 -12.1755 -12.1755
     2.0620   2.0623   3.6909   3.6916   3.6951   3.6952   3.6998   3.7007
     4.4861   4.4868   4.4922   4.4922   4.4945   4.4950   5.3429   5.3433
     8.1297   8.1299   8.1365   8.1365   8.1376   8.1377   9.8221   9.8222
    10.0210  10.0214  10.7899  10.7905  10.7912  10.7915

          k =-0.2500 0.2500 0.5000 (  6608 PWs)   bands (ev):

   -35.9040 -35.9040 -35.8944 -35.8944 -35.8910 -35.8910 -35.8784 -35.8784
   -16.6657 -16.6657 -16.6563 -16.6561 -16.6267 -16.6266 -16.6162 -16.6161
   -12.4938 -12.4937 -12.4896 -12.4894 -12.4264 -12.4263 -12.4220 -12.4217
   -12.2941 -12.2940 -12.2895 -12.2891 -12.2233 -12.2231 -12.2182 -12.2181
     2.8111   2.8114   2.8219   2.8225   3.5599   3.5606   3.5673   3.5683
     4.6775   4.6780   4.6834   4.6839   4.8119   4.8124   4.8248   4.8256
     8.4514   8.4516   8.4543   8.4545   9.3210   9.3214   9.3283   9.3287
    10.1107  10.1116  10.1126  10.1136  10.3551  10.3558

          k =-0.5000-0.2500 0.2500 (  6608 PWs)   bands (ev):

   -35.9030 -35.9030 -35.8976 -35.8976 -35.8883 -35.8883 -35.8790 -35.8790
   -16.6619 -16.6619 -16.6612 -16.6612 -16.6230 -16.6229 -16.6187 -16.6187
   -12.4923 -12.4920 -12.4915 -12.4913 -12.4244 -12.4241 -12.4238 -12.4237
   -12.2925 -12.2923 -12.2912 -12.2910 -12.2211 -12.2210 -12.2201 -12.2197
     2.8135   2.8140   2.8147   2.8148   3.5594   3.5601   3.5718   3.5725
     4.6745   4.6751   4.6836   4.6841   4.8206   4.8212   4.8220   4.8230
     8.4508   8.4509   8.4555   8.4557   9.3238   9.3246   9.3250   9.3254
    10.1102  10.1116  10.1122  10.1133  10.3557  10.3584

          k = 0.5000-0.2500-0.2500 (  6608 PWs)   bands (ev):

   -35.9030 -35.9030 -35.8976 -35.8976 -35.8883 -35.8883 -35.8790 -35.8790
   -16.6619 -16.6619 -16.6612 -16.6612 -16.6229 -16.6229 -16.6187 -16.6187
   -12.4921 -12.4921 -12.4914 -12.4914 -12.4243 -12.4242 -12.4237 -12.4237
   -12.2923 -12.2923 -12.2912 -12.2912 -12.2211 -12.2210 -12.2199 -12.2199
     2.8091   2.8093   2.8190   2.8193   3.5657   3.5658   3.5664   3.5665
     4.6776   4.6786   4.6793   4.6805   4.8167   4.8168   4.8269   4.8269
     8.4528   8.4529   8.4536   8.4537   9.3213   9.3214   9.3278   9.3279
    10.1103  10.1104  10.1138  10.1139  10.3575  10.3577

          k =-0.5000 0.2500 0.5000 (  6572 PWs)   bands (ev):

   -35.9020 -35.9020 -35.8929 -35.8929 -35.8929 -35.8929 -35.8799 -35.8799
   -16.6514 -16.6514 -16.6432 -16.6432 -16.6431 -16.6431 -16.6314 -16.6313
   -12.4816 -12.4816 -12.4815 -12.4813 -12.4742 -12.4740 -12.4739 -12.4739
   -12.2393 -12.2391 -12.2387 -12.2387 -12.2307 -12.2307 -12.2304 -12.2301
     3.0815   3.0821   3.0919   3.0919   3.0922   3.0923   3.1015   3.1021
     4.8395   4.8400   4.8488   4.8488   4.8491   4.8491   4.8589   4.8594
     9.1493   9.1497   9.1520   9.1521   9.1544   9.1545   9.1564   9.1568
     9.9891   9.9891   9.9898   9.9904   9.9907   9.9915

     the Fermi energy is     8.5059 ev

!    total energy              =   -2248.39319966 Ry
     Harris-Foulkes estimate   =   -2248.39319969 Ry
     estimated scf accuracy    <       0.00000003 Ry

     total all-electron energy =    -90252.736576 Ry

     The total energy is the sum of the following terms:

     one-electron contribution =     -57.97218131 Ry
     hartree contribution      =      47.01535733 Ry
     xc contribution           =    -256.84455409 Ry
     ewald contribution        =    -232.54373245 Ry
     one-center paw contrib.   =   -1748.04625537 Ry
     smearing contrib. (-TS)   =      -0.00183377 Ry

     convergence has been achieved in   7 iterations

     Forces acting on atoms (cartesian axes, Ry/au):

     atom    1 type  1   force =    -0.00018792    0.00058342    0.00058342
     atom    2 type  1   force =     0.00010488    0.00048023    0.00048023
     atom    3 type  1   force =     0.00007240    0.00038273    0.00039268
     atom    4 type  1   force =     0.00007240    0.00039268    0.00038273
     atom    5 type  2   force =     0.00014997   -0.00232063   -0.00232063
     atom    6 type  2   force =     0.00002369   -0.00004741    0.00035741
     atom    7 type  2   force =     0.00002581    0.00003703    0.00003703
     atom    8 type  2   force =     0.00002369    0.00035741   -0.00004741
     atom    9 type  2   force =    -0.00007056    0.00003728   -0.00008210
     atom   10 type  2   force =    -0.00007473    0.00022669    0.00022669
     atom   11 type  2   force =    -0.00007056   -0.00008210    0.00003728
     atom   12 type  2   force =    -0.00006908   -0.00004735   -0.00004735

     Total force =     0.003606     Total SCF correction =     0.000280

     Writing output data file 2386.save
 
     init_run     :      5.99s CPU      6.72s WALL (       1 calls)
     electrons    :     82.70s CPU     85.69s WALL (       1 calls)
     forces       :      1.80s CPU      1.84s WALL (       1 calls)

     Called by init_run:
     wfcinit      :      4.94s CPU      5.36s WALL (       1 calls)
     potinit      :      0.63s CPU      0.70s WALL (       1 calls)

     Called by electrons:
     c_bands      :     68.33s CPU     70.31s WALL (       7 calls)
     sum_band     :      9.21s CPU      9.64s WALL (       7 calls)
     v_of_rho     :      0.10s CPU      0.10s WALL (       8 calls)
     newd         :      1.01s CPU      1.26s WALL (       8 calls)
     PAW_pot      :      4.68s CPU      4.72s WALL (       8 calls)
     mix_rho      :      0.08s CPU      0.10s WALL (       7 calls)

     Called by c_bands:
     init_us_2    :      0.55s CPU      0.56s WALL (     384 calls)
     cegterg      :     59.66s CPU     61.56s WALL (     168 calls)

     Called by sum_band:
     sum_band:bec :      0.80s CPU      0.80s WALL (     168 calls)
     addusdens    :      0.68s CPU      0.92s WALL (       7 calls)

     Called by *egterg:
     h_psi        :     38.63s CPU     39.56s WALL (     785 calls)
     s_psi        :      4.02s CPU      4.03s WALL (     785 calls)
     g_psi        :      0.25s CPU      0.26s WALL (     593 calls)
     cdiaghg      :      6.17s CPU      6.39s WALL (     761 calls)

     Called by h_psi:
     h_psi:pot    :     37.78s CPU     38.67s WALL (     785 calls)
     h_psi:calbec :      3.23s CPU      3.32s WALL (     785 calls)
     vloc_psi     :     30.46s CPU     31.24s WALL (     785 calls)
     add_vuspsi   :      4.08s CPU      4.10s WALL (     785 calls)

     General routines
     calbec       :      4.81s CPU      4.94s WALL (    1049 calls)
     fft          :      0.10s CPU      0.30s WALL (     159 calls)
     fftw         :     29.78s CPU     30.55s WALL (  145492 calls)
     davcio       :      0.01s CPU      0.04s WALL (      24 calls)
 
     Parallel routines
     fft_scatter  :     10.63s CPU     10.99s WALL (  145651 calls)
 
     PWSCF        :  1m31.36s CPU     3m24.85s WALL

 
   This run was terminated on:  13:45:53  30Nov2022            

=------------------------------------------------------------------------------=
   JOB DONE.
=------------------------------------------------------------------------------=
Removing 2386 from /home/shaharpit/tmp
