
     Program PWSCF v.6.1 (svn rev. 13369) starts on 16Nov2022 at 10:52: 1 

     This program is part of the open-source Quantum ESPRESSO suite
     for quantum simulation of materials; please cite
         "P. Giannozzi et al., J. Phys.:Condens. Matter 21 395502 (2009);
          URL http://www.quantum-espresso.org", 
     in publications or presentations arising from this work. More details at
     http://www.quantum-espresso.org/quote

     Parallel version (MPI), running on    32 processors
     R & G space division:  proc/nbgrp/npool/nimage =      32
     Reading input from ./fcc_50_0.9.in
Warning: card &IONS ignored
Warning: card 	ION_DYNAMICS='BFGS', ignored
Warning: card / ignored
Warning: card &CELL ignored
Warning: card / ignored

     Current dimensions of program PWSCF are:
     Max number of different atomic species (ntypx) = 10
     Max number of k-points (npk) =  40000
     Max angular momentum in pseudopotentials (lmaxx) =  3
               file Gd.rel-pbe-spdn-kjpaw_psl.1.0.0.UPF: wavefunction(s)  5P 5P renormalized
               file H.pbe-kjpaw_psl.0.1.UPF: wavefunction(s)  1S renormalized

     Subspace diagonalization in iterative solution of the eigenvalue problem:
     a serial algorithm will be used

 
     Parallelization info
     --------------------
     sticks:   dense  smooth     PW     G-vecs:    dense   smooth      PW
     Min          46      46     13                 1354     1354     213
     Max          47      47     14                 1359     1359     216
     Sum        1481    1481    437                43387    43387    6859
 


     bravais-lattice index     =            0
     lattice parameter (alat)  =       9.6754  a.u.
     unit-cell volume          =     905.7461 (a.u.)^3
     number of atoms/cell      =            8
     number of atomic types    =            2
     number of electrons       =        48.00
     number of Kohn-Sham states=           58
     kinetic-energy cutoff     =      50.0000  Ry
     charge density cutoff     =     200.0000  Ry
     convergence threshold     =      1.0E-06
     mixing beta               =       0.7000
     number of iterations used =            8  plain     mixing
     Exchange-correlation      =  SLA  PW   PBX  PBC ( 1  4  3  4 0 0)
     Non magnetic calculation with spin-orbit


     celldm(1)=   9.675398  celldm(2)=   0.000000  celldm(3)=   0.000000
     celldm(4)=   0.000000  celldm(5)=   0.000000  celldm(6)=   0.000000

     crystal axes: (cart. coord. in units of alat)
               a(1) = (   1.000000   0.000000   0.000000 )  
               a(2) = (   0.000000   1.000000   0.000000 )  
               a(3) = (   0.000000   0.000000   1.000000 )  

     reciprocal axes: (cart. coord. in units 2 pi/alat)
               b(1) = (  1.000000  0.000000  0.000000 )  
               b(2) = (  0.000000  1.000000  0.000000 )  
               b(3) = (  0.000000  0.000000  1.000000 )  


     PseudoPot. # 1 for Gd read from file:
     /home/shaharpit/MeamGdH/dft/qe_potentials/Gd.rel-pbe-spdn-kjpaw_psl.1.0.0.UPF
     MD5 check sum: cf50ec46d1536b4a0251694df1946a53
     Pseudo is Projector augmented-wave + core cor, Zval = 11.0
     Generated using "atomic" code by A. Dal Corso  v.6.2.2
     Shape of augmentation charge: PSQ
     Using radial grid of 1263 points, 10 beta functions with: 
                l(1) =   0
                l(2) =   0
                l(3) =   1
                l(4) =   1
                l(5) =   1
                l(6) =   1
                l(7) =   2
                l(8) =   2
                l(9) =   2
               l(10) =   2
     Q(r) pseudized with 0 coefficients 


     PseudoPot. # 2 for  H read from file:
     /home/shaharpit/MeamGdH/dft/qe_potentials/H.pbe-kjpaw_psl.0.1.UPF
     MD5 check sum: fbb168fef676c0aaadbafd73f5b1efa8
     Pseudo is Projector augmented-wave, Zval =  1.0
     Generated using "atomic" code by A. Dal Corso  v.5.0.2 svn rev. 9415
     Shape of augmentation charge: PSQ
     Using radial grid of  929 points,  2 beta functions with: 
                l(1) =   0
                l(2) =   0
     Q(r) pseudized with 0 coefficients 


     atomic species   valence    mass     pseudopotential
        Gd            11.00   157.25000     Gd( 1.00)
        H              1.00     1.00794      H( 1.00)

      2 Sym. Ops. (no inversion) found



   Cartesian axes

     site n.     atom                  positions (alat units)
         1           Gd  tau(   1) = (   0.0000000   0.0000000   0.0000000  )
         2           Gd  tau(   2) = (   0.0000000   0.5000000   0.5000000  )
         3           Gd  tau(   3) = (   0.5000000   0.0000000   0.5000000  )
         4           Gd  tau(   4) = (   0.5000000   0.5000000   0.0000000  )
         5           H   tau(   5) = (   0.2500000   0.7539000   0.7539000  )
         6           H   tau(   6) = (   0.2500000   0.7501000   0.2500000  )
         7           H   tau(   7) = (   0.2500000   0.2500000   0.2500000  )
         8           H   tau(   8) = (   0.2500000   0.2500000   0.7501000  )

     number of k points=    24  gaussian smearing, width (Ry)=  0.0100
                       cart. coord. in units 2pi/alat
        k(    1) = (   0.0000000   0.0000000   0.0000000), wk =   0.0156250
        k(    2) = (   0.0000000   0.0000000   0.2500000), wk =   0.0625000
        k(    3) = (   0.0000000   0.0000000  -0.5000000), wk =   0.0312500
        k(    4) = (   0.0000000   0.2500000   0.2500000), wk =   0.0312500
        k(    5) = (   0.0000000   0.2500000  -0.5000000), wk =   0.0625000
        k(    6) = (   0.0000000  -0.5000000  -0.5000000), wk =   0.0156250
        k(    7) = (   0.2500000   0.2500000   0.2500000), wk =   0.0312500
        k(    8) = (   0.2500000   0.2500000  -0.5000000), wk =   0.0625000
        k(    9) = (   0.2500000  -0.5000000  -0.5000000), wk =   0.0312500
        k(   10) = (  -0.5000000  -0.5000000  -0.5000000), wk =   0.0156250
        k(   11) = (   0.2500000   0.0000000   0.0000000), wk =   0.0312500
        k(   12) = (  -0.5000000   0.0000000   0.0000000), wk =   0.0156250
        k(   13) = (   0.0000000   0.2500000  -0.2500000), wk =   0.0312500
        k(   14) = (   0.2500000   0.0000000  -0.2500000), wk =   0.0625000
        k(   15) = (  -0.2500000   0.0000000  -0.2500000), wk =   0.0625000
        k(   16) = (   0.2500000   0.0000000   0.5000000), wk =   0.0625000
        k(   17) = (  -0.5000000  -0.2500000   0.0000000), wk =   0.0625000
        k(   18) = (  -0.5000000   0.0000000   0.5000000), wk =   0.0312500
        k(   19) = (  -0.2500000   0.2500000  -0.2500000), wk =   0.0625000
        k(   20) = (   0.2500000  -0.2500000  -0.2500000), wk =   0.0312500
        k(   21) = (  -0.2500000   0.2500000   0.5000000), wk =   0.0625000
        k(   22) = (  -0.5000000  -0.2500000   0.2500000), wk =   0.0312500
        k(   23) = (   0.5000000  -0.2500000  -0.2500000), wk =   0.0312500
        k(   24) = (  -0.5000000   0.2500000   0.5000000), wk =   0.0625000

     Dense  grid:    43387 G-vectors     FFT dimensions: (  45,  45,  45)

     Estimated max dynamical RAM per process >      14.69MB

     Estimated total allocated dynamical RAM >     470.11MB

     Initial potential from superposition of free atoms

     starting charge   47.92377, renormalised to   48.00000
     Starting wfc are  112 randomized atomic wfcs
     Checking if some PAW data can be deallocated... 

     total cpu time spent up to now is        4.8 secs

     per-process dynamical memory:    55.2 Mb

     Self-consistent Calculation

     iteration #  1     ecut=    50.00 Ry     beta=0.70
     Davidson diagonalization with overlap
     ethr =  1.00E-02,  avg # of iterations =  2.0

     Threshold (ethr) on eigenvalues was too large:
     Diagonalizing with lowered threshold

     Davidson diagonalization with overlap
     ethr =  9.61E-04,  avg # of iterations =  1.0

     total cpu time spent up to now is       13.7 secs

     total energy              =   -2243.20108067 Ry
     Harris-Foulkes estimate   =   -2243.51997983 Ry
     estimated scf accuracy    <       0.47332367 Ry

     iteration #  2     ecut=    50.00 Ry     beta=0.70
     Davidson diagonalization with overlap
     ethr =  9.86E-04,  avg # of iterations =  3.0

     total cpu time spent up to now is       19.7 secs

     total energy              =   -2243.27624021 Ry
     Harris-Foulkes estimate   =   -2243.43318682 Ry
     estimated scf accuracy    <       0.29047363 Ry

     iteration #  3     ecut=    50.00 Ry     beta=0.70
     Davidson diagonalization with overlap
     ethr =  6.05E-04,  avg # of iterations =  2.2

     total cpu time spent up to now is       25.0 secs

     total energy              =   -2243.35044091 Ry
     Harris-Foulkes estimate   =   -2243.35694893 Ry
     estimated scf accuracy    <       0.01367802 Ry

     iteration #  4     ecut=    50.00 Ry     beta=0.70
     Davidson diagonalization with overlap
     ethr =  2.85E-05,  avg # of iterations =  2.2

     total cpu time spent up to now is       30.5 secs

     total energy              =   -2243.35356635 Ry
     Harris-Foulkes estimate   =   -2243.35357380 Ry
     estimated scf accuracy    <       0.00016142 Ry

     iteration #  5     ecut=    50.00 Ry     beta=0.70
     Davidson diagonalization with overlap
     ethr =  3.36E-07,  avg # of iterations =  4.6

     total cpu time spent up to now is       37.5 secs

     total energy              =   -2243.35360348 Ry
     Harris-Foulkes estimate   =   -2243.35363481 Ry
     estimated scf accuracy    <       0.00006111 Ry

     iteration #  6     ecut=    50.00 Ry     beta=0.70
     Davidson diagonalization with overlap
     ethr =  1.27E-07,  avg # of iterations =  3.4

     total cpu time spent up to now is       43.0 secs

     total energy              =   -2243.35361921 Ry
     Harris-Foulkes estimate   =   -2243.35363031 Ry
     estimated scf accuracy    <       0.00002801 Ry

     iteration #  7     ecut=    50.00 Ry     beta=0.70
     Davidson diagonalization with overlap
     ethr =  5.83E-08,  avg # of iterations =  2.9

     total cpu time spent up to now is       48.2 secs

     End of self-consistent calculation

          k = 0.0000 0.0000 0.0000 (  5449 PWs)   bands (ev):

   -33.5608 -33.5608 -33.4766 -33.4766 -33.4697 -33.4697 -33.4618 -33.4618
   -14.3820 -14.3820 -14.3776 -14.3776 -14.3694 -14.3694 -14.0691 -14.0691
   -10.3603 -10.3603 -10.3597 -10.3597 -10.3375 -10.3375  -9.9906  -9.9906
    -9.9630  -9.9630  -9.9627  -9.9627  -9.6824  -9.6824  -9.6452  -9.6452
     3.3917   3.3917   5.7509   5.7509   5.7522   5.7522   6.0188   6.0188
     8.4165   8.4165   8.4167   8.4167   8.4224   8.4224  10.5001  10.5001
    11.4068  11.4068  11.4079  11.4079  11.8083  11.8083  11.8225  11.8225
    11.9892  11.9892

          k = 0.0000 0.0000 0.2500 (  5430 PWs)   bands (ev):

   -33.5477 -33.5477 -33.4844 -33.4844 -33.4735 -33.4735 -33.4633 -33.4633
   -14.3797 -14.3789 -14.3711 -14.3699 -14.3324 -14.3320 -14.1152 -14.1151
   -10.3300 -10.3295 -10.3065 -10.3063 -10.2698 -10.2697 -10.0374 -10.0368
   -10.0106 -10.0104  -9.9189  -9.9188  -9.7892  -9.7890  -9.6980  -9.6979
     3.8285   3.8288   5.5800   5.5801   5.8891   5.8904   6.1006   6.1017
     8.6623   8.6624   8.8785   8.8790   8.8827   8.8829  10.0737  10.0738
    10.9884  10.9899  10.9968  10.9983  11.2608  11.2609  12.1254  12.1254
    12.2737  12.2751

          k = 0.0000 0.0000-0.5000 (  5406 PWs)   bands (ev):

   -33.5207 -33.5207 -33.5105 -33.5105 -33.4741 -33.4741 -33.4636 -33.4636
   -14.3774 -14.3774 -14.3689 -14.3689 -14.2294 -14.2294 -14.2203 -14.2203
   -10.2732 -10.2732 -10.2667 -10.2667 -10.0997 -10.0997 -10.0939 -10.0939
   -10.0342 -10.0342 -10.0285 -10.0285  -9.8148  -9.8148  -9.8059  -9.8059
     4.8201   4.8201   4.8369   4.8369   6.1012   6.1012   6.1166   6.1166
     9.2433   9.2433   9.2562   9.2562   9.5769   9.5769   9.5778   9.5778
    10.5363  10.5363  10.5382  10.5382  11.9407  11.9408  11.9457  11.9457
    12.8046  12.8074

          k = 0.0000 0.2500 0.2500 (  5393 PWs)   bands (ev):

   -33.5366 -33.5366 -33.4840 -33.4840 -33.4810 -33.4810 -33.4672 -33.4672
   -14.3690 -14.3685 -14.3454 -14.3438 -14.3336 -14.3323 -14.1552 -14.1552
   -10.2946 -10.2945 -10.2808 -10.2796 -10.2564 -10.2564 -10.0367 -10.0367
    -9.9536  -9.9532  -9.9518  -9.9515  -9.9000  -9.8999  -9.7167  -9.7167
     4.1882   4.1882   5.6499   5.6505   5.7456   5.7476   6.0568   6.0568
     9.1193   9.1204   9.1209   9.1212   9.2849   9.2850   9.9062   9.9063
    10.7919  10.7925  10.8156  10.8165  10.8812  10.8816  12.0929  12.0929
    12.4205  12.4205

          k = 0.0000 0.2500-0.5000 (  5390 PWs)   bands (ev):

   -33.5142 -33.5142 -33.5040 -33.5040 -33.4805 -33.4805 -33.4700 -33.4700
   -14.3584 -14.3582 -14.3498 -14.3496 -14.2536 -14.2534 -14.2446 -14.2444
   -10.2738 -10.2736 -10.2706 -10.2705 -10.1132 -10.1113 -10.1091 -10.1072
   -10.0084 -10.0055 -10.0051 -10.0025  -9.8252  -9.8243  -9.8199  -9.8190
     5.0115   5.0123   5.0268   5.0276   5.9100   5.9107   5.9236   5.9243
     9.4946   9.4952   9.5041   9.5047   9.9578   9.9584   9.9585   9.9591
    10.3284  10.3287  10.3302  10.3305  11.4924  11.4927  11.4949  11.4951
    13.1394  13.1400

          k = 0.0000-0.5000-0.5000 (  5440 PWs)   bands (ev):

   -33.5023 -33.5023 -33.4923 -33.4923 -33.4923 -33.4923 -33.4816 -33.4816
   -14.3127 -14.3127 -14.3042 -14.3042 -14.3041 -14.3041 -14.2950 -14.2950
   -10.2161 -10.2161 -10.2154 -10.2154 -10.2149 -10.2149 -10.2141 -10.2141
    -9.8919  -9.8919  -9.8912  -9.8912  -9.8898  -9.8898  -9.8889  -9.8889
     5.4495   5.4495   5.4674   5.4674   5.4675   5.4675   5.4860   5.4860
     9.9880   9.9880   9.9893   9.9893   9.9895   9.9895   9.9905   9.9905
    10.8314  10.8314  10.8326  10.8326  10.8327  10.8327  10.8339  10.8339
    12.9540  12.9549

          k = 0.2500 0.2500 0.2500 (  5395 PWs)   bands (ev):

   -33.5275 -33.5275 -33.4874 -33.4874 -33.4810 -33.4809 -33.4728 -33.4728
   -14.3506 -14.3473 -14.3444 -14.3368 -14.3352 -14.3308 -14.1889 -14.1888
   -10.2998 -10.2986 -10.2732 -10.2719 -10.2687 -10.2675 -10.0088 -10.0087
    -9.9495  -9.9495  -9.9405  -9.9388  -9.9354  -9.9343  -9.7199  -9.7199
     4.3622   4.3625   5.6190   5.6221   5.7146   5.7184   6.0268   6.0269
     8.9383   8.9390   9.5450   9.5525   9.5550   9.5620  10.3577  10.3600
    10.7044  10.7063  10.7838  10.7867  10.8529  10.8562  12.1077  12.1077
    12.3230  12.3233

          k = 0.2500 0.2500-0.5000 (  5420 PWs)   bands (ev):

   -33.5097 -33.5097 -33.4996 -33.4996 -33.4848 -33.4848 -33.4743 -33.4743
   -14.3475 -14.3472 -14.3389 -14.3388 -14.2723 -14.2720 -14.2633 -14.2632
   -10.2946 -10.2944 -10.2915 -10.2913 -10.1743 -10.1737 -10.1704 -10.1698
    -9.9348  -9.9337  -9.9308  -9.9300  -9.8032  -9.8027  -9.7985  -9.7978
     4.9945   4.9954   5.0088   5.0096   5.8076   5.8084   5.8208   5.8216
     9.5545   9.5550   9.5617   9.5620  10.3343  10.3346  10.3356  10.3362
    10.6466  10.6469  10.6530  10.6536  11.5172  11.5176  11.5232  11.5237
    12.4439  12.4451

          k = 0.2500-0.5000-0.5000 (  5452 PWs)   bands (ev):

   -33.5022 -33.5022 -33.4922 -33.4922 -33.4922 -33.4922 -33.4815 -33.4815
   -14.3180 -14.3180 -14.3096 -14.3096 -14.3094 -14.3094 -14.3004 -14.3004
   -10.2679 -10.2678 -10.2670 -10.2666 -10.2635 -10.2631 -10.2621 -10.2620
    -9.8313  -9.8311  -9.8307  -9.8306  -9.8252  -9.8250  -9.8246  -9.8245
     5.2910   5.2911   5.3083   5.3083   5.3084   5.3084   5.3262   5.3263
    10.2882  10.2891  10.2918  10.2921  10.2921  10.2922  10.2947  10.2956
    11.2652  11.2665  11.2705  11.2706  11.2707  11.2708  11.2748  11.2761
    12.2091  12.2115

          k =-0.5000-0.5000-0.5000 (  5400 PWs)   bands (ev):

   -33.5021 -33.5021 -33.4921 -33.4921 -33.4921 -33.4921 -33.4814 -33.4814
   -14.3233 -14.3233 -14.3149 -14.3149 -14.3148 -14.3148 -14.3057 -14.3057
   -10.3065 -10.3065 -10.3052 -10.3052 -10.3012 -10.3012 -10.2998 -10.2998
    -9.7808  -9.7808  -9.7802  -9.7802  -9.7736  -9.7736  -9.7731  -9.7731
     5.1472   5.1472   5.1641   5.1641   5.1641   5.1641   5.1815   5.1815
    10.6095  10.6095  10.6141  10.6141  10.6142  10.6142  10.6185  10.6185
    11.7373  11.7373  11.7386  11.7386  11.7398  11.7398  11.7411  11.7411
    11.9308  11.9318

          k = 0.2500 0.0000 0.0000 (  5430 PWs)   bands (ev):

   -33.5478 -33.5478 -33.4860 -33.4860 -33.4696 -33.4696 -33.4655 -33.4655
   -14.3766 -14.3766 -14.3759 -14.3759 -14.3301 -14.3299 -14.1144 -14.1143
   -10.3326 -10.3322 -10.3320 -10.3318 -10.2508 -10.2505 -10.0057 -10.0055
   -10.0053 -10.0049  -9.9464  -9.9464  -9.7589  -9.7586  -9.7286  -9.7286
     3.7560   3.7562   5.8622   5.8622   5.8640   5.8641   6.1273   6.1273
     8.1098   8.1100   8.8751   8.8754   8.8758   8.8759  10.6026  10.6027
    10.8822  10.8831  11.0996  11.0996  11.1002  11.1003  12.1321  12.1324
    12.2808  12.2828

          k =-0.5000 0.0000 0.0000 (  5406 PWs)   bands (ev):

   -33.5191 -33.5191 -33.5133 -33.5133 -33.4696 -33.4696 -33.4670 -33.4670
   -14.3746 -14.3746 -14.3742 -14.3742 -14.2360 -14.2360 -14.2110 -14.2110
   -10.2947 -10.2947 -10.2945 -10.2945 -10.0653 -10.0653 -10.0575 -10.0575
   -10.0545 -10.0545  -9.9731  -9.9731  -9.8453  -9.8453  -9.8322  -9.8322
     4.2215   4.2215   5.9813   5.9813   5.9836   5.9836   6.2502   6.2502
     7.5558   7.5558   9.5509   9.5509   9.5518   9.5518  10.2600  10.2600
    10.8104  10.8104  10.8105  10.8105  11.4548  11.4548  12.1099  12.1099
    12.8769  12.8772

          k = 0.0000 0.2500-0.2500 (  5393 PWs)   bands (ev):

   -33.5366 -33.5366 -33.4840 -33.4840 -33.4810 -33.4810 -33.4672 -33.4672
   -14.3690 -14.3685 -14.3454 -14.3439 -14.3336 -14.3323 -14.1553 -14.1551
   -10.2947 -10.2944 -10.2803 -10.2801 -10.2564 -10.2563 -10.0372 -10.0363
    -9.9536  -9.9533  -9.9516  -9.9515  -9.9001  -9.8997  -9.7167  -9.7167
     4.1878   4.1886   5.6487   5.6492   5.7475   5.7481   6.0561   6.0578
     9.1158   9.1161   9.1247   9.1250   9.2848   9.2850   9.9063   9.9064
    10.7926  10.7928  10.8156  10.8156  10.8814  10.8814  12.0929  12.0929
    12.4193  12.4210

          k = 0.2500 0.0000-0.2500 (  5393 PWs)   bands (ev):

   -33.5366 -33.5366 -33.4866 -33.4866 -33.4775 -33.4775 -33.4681 -33.4681
   -14.3713 -14.3711 -14.3431 -14.3411 -14.3344 -14.3325 -14.1546 -14.1545
   -10.3212 -10.3207 -10.2655 -10.2651 -10.2517 -10.2515 -10.0110 -10.0105
    -9.9771  -9.9766  -9.9482  -9.9477  -9.8932  -9.8929  -9.7235  -9.7234
     4.1075   4.1079   5.6169   5.6175   5.9667   5.9679   6.1656   6.1667
     8.5034   8.5036   9.0520   9.0523   9.3260   9.3265  10.3065  10.3073
    10.7184  10.7194  10.8515  10.8540  10.9296  10.9323  12.0989  12.0993
    12.4209  12.4219

          k =-0.2500 0.0000-0.2500 (  5393 PWs)   bands (ev):

   -33.5366 -33.5366 -33.4865 -33.4865 -33.4775 -33.4775 -33.4681 -33.4681
   -14.3713 -14.3708 -14.3433 -14.3411 -14.3345 -14.3327 -14.1545 -14.1543
   -10.3210 -10.3205 -10.2661 -10.2657 -10.2523 -10.2521 -10.0107 -10.0102
    -9.9768  -9.9762  -9.9480  -9.9476  -9.8928  -9.8925  -9.7235  -9.7234
     4.1052   4.1056   5.6149   5.6152   5.9660   5.9672   6.1654   6.1664
     8.5049   8.5051   9.0492   9.0495   9.3317   9.3322  10.3174  10.3183
    10.7219  10.7228  10.8554  10.8583  10.9325  10.9354  12.0926  12.0930
    12.4182  12.4192

          k = 0.2500 0.0000 0.5000 (  5390 PWs)   bands (ev):

   -33.5142 -33.5142 -33.5040 -33.5040 -33.4805 -33.4805 -33.4700 -33.4700
   -14.3588 -14.3586 -14.3503 -14.3501 -14.2529 -14.2527 -14.2440 -14.2438
   -10.2782 -10.2778 -10.2752 -10.2748 -10.1076 -10.1072 -10.1031 -10.1027
   -10.0089 -10.0085 -10.0055 -10.0051  -9.8242  -9.8240  -9.8188  -9.8186
     4.9102   4.9105   4.9251   4.9254   6.1282   6.1285   6.1431   6.1435
     9.0921   9.0928   9.1004   9.1011   9.9561   9.9568   9.9597   9.9604
    10.6388  10.6391  10.6403  10.6406  11.4381  11.4384  11.4468  11.4470
    13.1865  13.1882

          k =-0.5000-0.2500 0.0000 (  5390 PWs)   bands (ev):

   -33.5125 -33.5125 -33.5072 -33.5072 -33.4763 -33.4763 -33.4728 -33.4728
   -14.3615 -14.3611 -14.3488 -14.3482 -14.2605 -14.2598 -14.2358 -14.2353
   -10.3099 -10.3094 -10.2611 -10.2605 -10.1312 -10.1310 -10.0565 -10.0563
   -10.0062 -10.0054  -9.9839  -9.9835  -9.8402  -9.8398  -9.8328  -9.8327
     4.4445   4.4448   5.6542   5.6544   6.0462   6.0471   6.2361   6.2370
     7.9726   7.9728   9.8958   9.8967   9.9579   9.9584  10.1073  10.1080
    10.4377  10.4378  10.8353  10.8356  11.3673  11.3674  11.4569  11.4570
    13.1332  13.1345

          k =-0.5000 0.0000 0.5000 (  5440 PWs)   bands (ev):

   -33.5025 -33.5025 -33.4925 -33.4925 -33.4921 -33.4921 -33.4814 -33.4814
   -14.3184 -14.3184 -14.3136 -14.3136 -14.2944 -14.2944 -14.2888 -14.2888
   -10.2486 -10.2486 -10.2479 -10.2479 -10.1842 -10.1842 -10.1831 -10.1831
    -9.8992  -9.8992  -9.8975  -9.8975  -9.8817  -9.8817  -9.8812  -9.8812
     5.0007   5.0007   5.0135   5.0135   6.1558   6.1558   6.1702   6.1702
     8.9762   8.9762   8.9770   8.9770  10.7172  10.7172  10.7174  10.7174
    10.7685  10.7685  10.7687  10.7687  10.8922  10.8922  10.8963  10.8963
    12.9999  13.0008

          k =-0.2500 0.2500-0.2500 (  5395 PWs)   bands (ev):

   -33.5274 -33.5274 -33.4874 -33.4874 -33.4810 -33.4809 -33.4728 -33.4728
   -14.3504 -14.3473 -14.3444 -14.3368 -14.3352 -14.3306 -14.1891 -14.1889
   -10.2994 -10.2991 -10.2730 -10.2712 -10.2685 -10.2668 -10.0094 -10.0093
    -9.9500  -9.9495  -9.9406  -9.9392  -9.9353  -9.9342  -9.7200  -9.7199
     4.3647   4.3655   5.6206   5.6212   5.7190   5.7196   6.0253   6.0269
     8.9372   8.9378   9.5435   9.5438   9.5567   9.5570  10.3519  10.3524
    10.7015  10.7018  10.7840  10.7841  10.8532  10.8533  12.1093  12.1100
    12.3247  12.3257

          k = 0.2500-0.2500-0.2500 (  5395 PWs)   bands (ev):

   -33.5274 -33.5274 -33.4874 -33.4874 -33.4810 -33.4809 -33.4728 -33.4728
   -14.3505 -14.3473 -14.3443 -14.3365 -14.3352 -14.3307 -14.1891 -14.1891
   -10.2997 -10.2988 -10.2723 -10.2705 -10.2684 -10.2666 -10.0100 -10.0098
    -9.9497  -9.9496  -9.9408  -9.9399  -9.9354  -9.9344  -9.7200  -9.7200
     4.3677   4.3680   5.6220   5.6255   5.7178   5.7219   6.0251   6.0251
     8.9361   8.9368   9.5379   9.5457   9.5485   9.5558  10.3440  10.3462
    10.6964  10.6988  10.7821  10.7844  10.8504  10.8534  12.1118  12.1118
    12.3272  12.3276

          k =-0.2500 0.2500 0.5000 (  5420 PWs)   bands (ev):

   -33.5097 -33.5097 -33.4995 -33.4995 -33.4849 -33.4849 -33.4743 -33.4743
   -14.3472 -14.3472 -14.3388 -14.3385 -14.2723 -14.2722 -14.2635 -14.2632
   -10.2940 -10.2938 -10.2909 -10.2907 -10.1746 -10.1741 -10.1708 -10.1702
    -9.9348  -9.9339  -9.9311  -9.9301  -9.8034  -9.8027  -9.7984  -9.7980
     4.9981   4.9989   5.0123   5.0132   5.8064   5.8072   5.8196   5.8204
     9.5505   9.5507   9.5574   9.5580  10.3331  10.3337  10.3348  10.3351
    10.6415  10.6421  10.6480  10.6483  11.5197  11.5202  11.5258  11.5262
    12.4447  12.4455

          k =-0.5000-0.2500 0.2500 (  5420 PWs)   bands (ev):

   -33.5081 -33.5081 -33.5029 -33.5029 -33.4809 -33.4809 -33.4765 -33.4765
   -14.3497 -14.3492 -14.3378 -14.3369 -14.2786 -14.2774 -14.2568 -14.2561
   -10.3162 -10.3161 -10.2796 -10.2796 -10.1957 -10.1953 -10.1387 -10.1383
    -9.9308  -9.9306  -9.9197  -9.9194  -9.8104  -9.8100  -9.8060  -9.8058
     4.5785   4.5791   5.5969   5.5975   5.6951   5.6957   5.9598   5.9611
     8.6128   8.6136  10.2338  10.2342  10.2905  10.2909  10.5545  10.5550
    10.5938  10.5944  10.6109  10.6110  11.5042  11.5043  11.5230  11.5231
    12.3369  12.3372

          k = 0.5000-0.2500-0.2500 (  5420 PWs)   bands (ev):

   -33.5081 -33.5081 -33.5029 -33.5029 -33.4809 -33.4809 -33.4765 -33.4765
   -14.3497 -14.3492 -14.3379 -14.3368 -14.2785 -14.2775 -14.2568 -14.2561
   -10.3167 -10.3156 -10.2798 -10.2794 -10.1955 -10.1955 -10.1385 -10.1385
    -9.9309  -9.9305  -9.9197  -9.9195  -9.8102  -9.8101  -9.8059  -9.8058
     4.5787   4.5787   5.5981   5.5987   5.6934   5.6954   5.9604   5.9604
     8.6133   8.6133  10.2331  10.2347  10.2896  10.2917  10.5545  10.5557
    10.5922  10.5951  10.6107  10.6107  11.5032  11.5032  11.5239  11.5239
    12.3373  12.3373

          k =-0.5000 0.2500 0.5000 (  5452 PWs)   bands (ev):

   -33.5023 -33.5023 -33.4923 -33.4923 -33.4921 -33.4921 -33.4814 -33.4814
   -14.3215 -14.3211 -14.3162 -14.3160 -14.3029 -14.3027 -14.2970 -14.2967
   -10.2863 -10.2857 -10.2834 -10.2828 -10.2486 -10.2479 -10.2450 -10.2445
    -9.8331  -9.8319  -9.8316  -9.8291  -9.8256  -9.8235  -9.8227  -9.8223
     4.9928   4.9938   5.0053   5.0063   5.6917   5.6927   5.7044   5.7054
     9.6914   9.6922   9.6933   9.6941  10.7750  10.7761  10.7772  10.7783
    11.1755  11.1766  11.1771  11.1782  11.3500  11.3508  11.3558  11.3566
    12.2244  12.2250

     the Fermi energy is    10.5406 ev

!    total energy              =   -2243.35362431 Ry
     Harris-Foulkes estimate   =   -2243.35362428 Ry
     estimated scf accuracy    <       0.00000008 Ry

     total all-electron energy =    -90247.697018 Ry

     The total energy is the sum of the following terms:

     one-electron contribution =     -45.65516331 Ry
     hartree contribution      =      42.97824558 Ry
     xc contribution           =    -254.46272760 Ry
     ewald contribution        =    -238.13839921 Ry
     one-center paw contrib.   =   -1748.07156783 Ry
     smearing contrib. (-TS)   =      -0.00401193 Ry

     convergence has been achieved in   7 iterations

     Writing output data file 2319.save
 
     init_run     :      2.15s CPU      3.42s WALL (       1 calls)
     electrons    :     36.89s CPU     43.97s WALL (       1 calls)

     Called by init_run:
     wfcinit      :      1.84s CPU      2.78s WALL (       1 calls)
     potinit      :      0.12s CPU      0.27s WALL (       1 calls)

     Called by electrons:
     c_bands      :     29.28s CPU     34.45s WALL (       8 calls)
     sum_band     :      5.32s CPU      6.25s WALL (       8 calls)
     v_of_rho     :      0.03s CPU      0.03s WALL (       8 calls)
     newd         :      0.66s CPU      0.74s WALL (       8 calls)
     PAW_pot      :      1.35s CPU      1.68s WALL (       8 calls)
     mix_rho      :      0.05s CPU      0.08s WALL (       8 calls)

     Called by c_bands:
     init_us_2    :      0.08s CPU      0.08s WALL (     408 calls)
     cegterg      :     27.80s CPU     32.87s WALL (     192 calls)

     Called by sum_band:
     sum_band:bec :      0.87s CPU      0.89s WALL (     192 calls)
     addusdens    :      0.19s CPU      0.23s WALL (       8 calls)

     Called by *egterg:
     h_psi        :     17.75s CPU     21.42s WALL (     728 calls)
     s_psi        :      1.20s CPU      1.28s WALL (     728 calls)
     g_psi        :      0.03s CPU      0.04s WALL (     512 calls)
     cdiaghg      :      6.25s CPU      7.43s WALL (     680 calls)

     Called by h_psi:
     h_psi:pot    :     17.64s CPU     21.30s WALL (     728 calls)
     h_psi:calbec :      0.81s CPU      0.92s WALL (     728 calls)
     vloc_psi     :     15.64s CPU     19.19s WALL (     728 calls)
     add_vuspsi   :      1.18s CPU      1.19s WALL (     728 calls)

     General routines
     calbec       :      1.23s CPU      1.45s WALL (     920 calls)
     fft          :      0.09s CPU      0.16s WALL (     154 calls)
     fftw         :     18.38s CPU     22.60s WALL (  143764 calls)
     davcio       :      0.00s CPU      0.00s WALL (      24 calls)
 
     Parallel routines
     fft_scatter  :     13.52s CPU     17.55s WALL (  143918 calls)
 
     PWSCF        :  0m40.18s CPU     1m59.38s WALL

 
   This run was terminated on:  10:54: 0  16Nov2022            

=------------------------------------------------------------------------------=
   JOB DONE.
=------------------------------------------------------------------------------=
Removing 2319 from /home/shaharpit/tmp
