
     Program PWSCF v.6.1 (svn rev. 13369) starts on 30Nov2022 at 13:42:28 

     This program is part of the open-source Quantum ESPRESSO suite
     for quantum simulation of materials; please cite
         "P. Giannozzi et al., J. Phys.:Condens. Matter 21 395502 (2009);
          URL http://www.quantum-espresso.org", 
     in publications or presentations arising from this work. More details at
     http://www.quantum-espresso.org/quote

     Parallel version (MPI), running on     4 processors
     R & G space division:  proc/nbgrp/npool/nimage =       4
     Reading input from ./fcc_100_1.in
Warning: card &IONS ignored
Warning: card 	ION_DYNAMICS='BFGS', ignored
Warning: card / ignored
Warning: card &CELL ignored
Warning: card / ignored

     Current dimensions of program PWSCF are:
     Max number of different atomic species (ntypx) = 10
     Max number of k-points (npk) =  40000
     Max angular momentum in pseudopotentials (lmaxx) =  3
               file Gd.rel-pbe-spdn-kjpaw_psl.1.0.0.UPF: wavefunction(s)  5P 5P renormalized
               file H.pbe-kjpaw_psl.0.1.UPF: wavefunction(s)  1S renormalized

     Subspace diagonalization in iterative solution of the eigenvalue problem:
     a serial algorithm will be used

 
     Parallelization info
     --------------------
     sticks:   dense  smooth     PW     G-vecs:    dense   smooth      PW
     Min         399     399    115                11983    11983    1873
     Max         400     400    117                11986    11986    1875
     Sum        1597    1597    465                47937    47937    7497
 


     bravais-lattice index     =            0
     lattice parameter (alat)  =      10.0212  a.u.
     unit-cell volume          =    1006.3788 (a.u.)^3
     number of atoms/cell      =           12
     number of atomic types    =            2
     number of electrons       =        52.00
     number of Kohn-Sham states=           62
     kinetic-energy cutoff     =      50.0000  Ry
     charge density cutoff     =     200.0000  Ry
     convergence threshold     =      1.0E-06
     mixing beta               =       0.7000
     number of iterations used =            8  plain     mixing
     Exchange-correlation      =  SLA  PW   PBX  PBC ( 1  4  3  4 0 0)
     Non magnetic calculation with spin-orbit


     celldm(1)=  10.021218  celldm(2)=   0.000000  celldm(3)=   0.000000
     celldm(4)=   0.000000  celldm(5)=   0.000000  celldm(6)=   0.000000

     crystal axes: (cart. coord. in units of alat)
               a(1) = (   1.000000   0.000000   0.000000 )  
               a(2) = (   0.000000   1.000000   0.000000 )  
               a(3) = (   0.000000   0.000000   1.000000 )  

     reciprocal axes: (cart. coord. in units 2 pi/alat)
               b(1) = (  1.000000  0.000000  0.000000 )  
               b(2) = (  0.000000  1.000000  0.000000 )  
               b(3) = (  0.000000  0.000000  1.000000 )  


     PseudoPot. # 1 for Gd read from file:
     /home/shaharpit/MeamGdH/dft/qe_potentials/Gd.rel-pbe-spdn-kjpaw_psl.1.0.0.UPF
     MD5 check sum: cf50ec46d1536b4a0251694df1946a53
     Pseudo is Projector augmented-wave + core cor, Zval = 11.0
     Generated using "atomic" code by A. Dal Corso  v.6.2.2
     Shape of augmentation charge: PSQ
     Using radial grid of 1263 points, 10 beta functions with: 
                l(1) =   0
                l(2) =   0
                l(3) =   1
                l(4) =   1
                l(5) =   1
                l(6) =   1
                l(7) =   2
                l(8) =   2
                l(9) =   2
               l(10) =   2
     Q(r) pseudized with 0 coefficients 


     PseudoPot. # 2 for  H read from file:
     /home/shaharpit/MeamGdH/dft/qe_potentials/H.pbe-kjpaw_psl.0.1.UPF
     MD5 check sum: fbb168fef676c0aaadbafd73f5b1efa8
     Pseudo is Projector augmented-wave, Zval =  1.0
     Generated using "atomic" code by A. Dal Corso  v.5.0.2 svn rev. 9415
     Shape of augmentation charge: PSQ
     Using radial grid of  929 points,  2 beta functions with: 
                l(1) =   0
                l(2) =   0
     Q(r) pseudized with 0 coefficients 


     atomic species   valence    mass     pseudopotential
        Gd            11.00   157.25000     Gd( 1.00)
        H              1.00     1.00794      H( 1.00)

      2 Sym. Ops. (no inversion) found



   Cartesian axes

     site n.     atom                  positions (alat units)
         1           Gd  tau(   1) = (   0.0000000   0.0000000   0.0000000  )
         2           Gd  tau(   2) = (   0.0000000   0.5000000   0.5000000  )
         3           Gd  tau(   3) = (   0.5000000   0.0000000   0.5000000  )
         4           Gd  tau(   4) = (   0.5000000   0.5000000   0.0000000  )
         5           H   tau(   5) = (   0.2500000   0.7539000   0.7539000  )
         6           H   tau(   6) = (   0.2500000   0.7501000   0.2500000  )
         7           H   tau(   7) = (   0.2500000   0.2500000   0.2500000  )
         8           H   tau(   8) = (   0.2500000   0.2500000   0.7501000  )
         9           H   tau(   9) = (   0.7501000   0.2500000   0.7501000  )
        10           H   tau(  10) = (   0.7501000   0.2500000   0.2500000  )
        11           H   tau(  11) = (   0.7501000   0.7501000   0.2500000  )
        12           H   tau(  12) = (   0.7501000   0.7501000   0.7501000  )

     number of k points=    24  gaussian smearing, width (Ry)=  0.0100
                       cart. coord. in units 2pi/alat
        k(    1) = (   0.0000000   0.0000000   0.0000000), wk =   0.0156250
        k(    2) = (   0.0000000   0.0000000   0.2500000), wk =   0.0625000
        k(    3) = (   0.0000000   0.0000000  -0.5000000), wk =   0.0312500
        k(    4) = (   0.0000000   0.2500000   0.2500000), wk =   0.0312500
        k(    5) = (   0.0000000   0.2500000  -0.5000000), wk =   0.0625000
        k(    6) = (   0.0000000  -0.5000000  -0.5000000), wk =   0.0156250
        k(    7) = (   0.2500000   0.2500000   0.2500000), wk =   0.0312500
        k(    8) = (   0.2500000   0.2500000  -0.5000000), wk =   0.0625000
        k(    9) = (   0.2500000  -0.5000000  -0.5000000), wk =   0.0312500
        k(   10) = (  -0.5000000  -0.5000000  -0.5000000), wk =   0.0156250
        k(   11) = (   0.2500000   0.0000000   0.0000000), wk =   0.0312500
        k(   12) = (  -0.5000000   0.0000000   0.0000000), wk =   0.0156250
        k(   13) = (   0.0000000   0.2500000  -0.2500000), wk =   0.0312500
        k(   14) = (   0.2500000   0.0000000  -0.2500000), wk =   0.0625000
        k(   15) = (  -0.2500000   0.0000000  -0.2500000), wk =   0.0625000
        k(   16) = (   0.2500000   0.0000000   0.5000000), wk =   0.0625000
        k(   17) = (  -0.5000000  -0.2500000   0.0000000), wk =   0.0625000
        k(   18) = (  -0.5000000   0.0000000   0.5000000), wk =   0.0312500
        k(   19) = (  -0.2500000   0.2500000  -0.2500000), wk =   0.0625000
        k(   20) = (   0.2500000  -0.2500000  -0.2500000), wk =   0.0312500
        k(   21) = (  -0.2500000   0.2500000   0.5000000), wk =   0.0625000
        k(   22) = (  -0.5000000  -0.2500000   0.2500000), wk =   0.0312500
        k(   23) = (   0.5000000  -0.2500000  -0.2500000), wk =   0.0312500
        k(   24) = (  -0.5000000   0.2500000   0.5000000), wk =   0.0625000

     Dense  grid:    47937 G-vectors     FFT dimensions: (  45,  45,  45)

     Estimated max dynamical RAM per process >     119.84MB

     Estimated total allocated dynamical RAM >     479.35MB

     Check: negative/imaginary core charge=   -0.000002    0.000000

     Initial potential from superposition of free atoms

     starting charge   51.92374, renormalised to   52.00000
     Starting wfc are  120 randomized atomic wfcs
     Checking if some PAW data can be deallocated... 

     total cpu time spent up to now is        9.3 secs

     per-process dynamical memory:   142.2 Mb

     Self-consistent Calculation

     iteration #  1     ecut=    50.00 Ry     beta=0.70
     Davidson diagonalization with overlap
     ethr =  1.00E-02,  avg # of iterations =  2.0

     total cpu time spent up to now is       21.0 secs

     total energy              =   -2248.31961136 Ry
     Harris-Foulkes estimate   =   -2248.64579446 Ry
     estimated scf accuracy    <       0.57574973 Ry

     iteration #  2     ecut=    50.00 Ry     beta=0.70
     Davidson diagonalization with overlap
     ethr =  1.11E-03,  avg # of iterations =  2.9

     total cpu time spent up to now is       33.5 secs

     total energy              =   -2248.42234814 Ry
     Harris-Foulkes estimate   =   -2248.42758573 Ry
     estimated scf accuracy    <       0.00866609 Ry

     iteration #  3     ecut=    50.00 Ry     beta=0.70
     Davidson diagonalization with overlap
     ethr =  1.67E-05,  avg # of iterations =  2.8

     total cpu time spent up to now is       48.3 secs

     total energy              =   -2248.42525162 Ry
     Harris-Foulkes estimate   =   -2248.42530433 Ry
     estimated scf accuracy    <       0.00030763 Ry

     iteration #  4     ecut=    50.00 Ry     beta=0.70
     Davidson diagonalization with overlap
     ethr =  5.92E-07,  avg # of iterations =  7.3

     total cpu time spent up to now is       66.8 secs

     total energy              =   -2248.42531063 Ry
     Harris-Foulkes estimate   =   -2248.42546059 Ry
     estimated scf accuracy    <       0.00035800 Ry

     iteration #  5     ecut=    50.00 Ry     beta=0.70
     Davidson diagonalization with overlap
     ethr =  5.92E-07,  avg # of iterations =  2.9

     total cpu time spent up to now is       79.5 secs

     total energy              =   -2248.42538077 Ry
     Harris-Foulkes estimate   =   -2248.42538127 Ry
     estimated scf accuracy    <       0.00000582 Ry

     iteration #  6     ecut=    50.00 Ry     beta=0.70
     Davidson diagonalization with overlap
     ethr =  1.12E-08,  avg # of iterations =  3.0

     total cpu time spent up to now is       94.3 secs

     End of self-consistent calculation

          k = 0.0000 0.0000 0.0000 (  6031 PWs)   bands (ev):

   -34.5743 -34.5743 -34.5215 -34.5215 -34.5142 -34.5142 -34.5040 -34.5040
   -15.3840 -15.3840 -15.3769 -15.3769 -15.3689 -15.3689 -15.1492 -15.1492
   -11.3152 -11.3152 -11.3120 -11.3120 -11.3092 -11.3092 -11.0026 -11.0026
   -10.9988 -10.9988 -10.9953 -10.9953 -10.7679 -10.7679 -10.7676 -10.7676
     1.7452   1.7452   4.4814   4.4814   4.4816   4.4816   4.4818   4.4818
     6.0828   6.0828   6.0850   6.0850   6.0869   6.0869   7.6393   7.6393
     7.6399   7.6399   7.6406   7.6406   8.1553   8.1553  10.6299  10.6299
    10.6315  10.6315  10.7906  10.7906  13.2273  13.2276

          k = 0.0000 0.0000 0.2500 (  6023 PWs)   bands (ev):

   -34.5659 -34.5659 -34.5252 -34.5252 -34.5175 -34.5175 -34.5054 -34.5054
   -15.3813 -15.3813 -15.3709 -15.3708 -15.3433 -15.3432 -15.1831 -15.1831
   -11.2874 -11.2871 -11.2819 -11.2816 -11.2412 -11.2411 -11.0396 -11.0393
   -11.0331 -11.0328 -10.9658 -10.9658 -10.8574 -10.8573 -10.8022 -10.8022
     2.1998   2.2000   4.6935   4.6938   4.6940   4.6946   4.7770   4.7771
     4.9996   4.9998   5.8322   5.8331   5.8344   5.8355   7.0172   7.0174
     8.0640   8.0647   8.0648   8.0655   8.6527   8.6528  10.9088  10.9089
    11.0378  11.0398  12.3183  12.3203  12.3481  12.3485

          k = 0.0000 0.0000-0.5000 (  5942 PWs)   bands (ev):

   -34.5505 -34.5505 -34.5387 -34.5387 -34.5187 -34.5187 -34.5060 -34.5060
   -15.3800 -15.3800 -15.3694 -15.3694 -15.2697 -15.2697 -15.2585 -15.2585
   -11.2489 -11.2489 -11.2399 -11.2399 -11.0914 -11.0914 -11.0817 -11.0817
   -11.0628 -11.0628 -11.0526 -11.0526 -10.8900 -10.8900 -10.8794 -10.8794
     3.4096   3.4096   3.4226   3.4226   5.1315   5.1315   5.1329   5.1329
     5.3577   5.3577   5.3595   5.3595   5.6409   5.6409   5.6588   5.6588
     8.7076   8.7076   8.7083   8.7083  10.3933  10.3933  10.4063  10.4063
    11.5184  11.5184  11.5237  11.5238  11.7895  11.7915

          k = 0.0000 0.2500 0.2500 (  6016 PWs)   bands (ev):

   -34.5589 -34.5589 -34.5255 -34.5255 -34.5216 -34.5216 -34.5079 -34.5079
   -15.3732 -15.3732 -15.3490 -15.3490 -15.3463 -15.3463 -15.2123 -15.2123
   -11.2695 -11.2695 -11.2374 -11.2371 -11.2368 -11.2366 -11.0400 -11.0399
   -10.9924 -10.9924 -10.9920 -10.9920 -10.9483 -10.9483 -10.8129 -10.8129
     2.5911   2.5911   4.7483   4.7483   4.8871   4.8879   4.8946   4.8951
     5.0386   5.0392   5.0471   5.0476   5.6902   5.6904   6.5044   6.5045
     8.4517   8.4518   8.8277   8.8277   8.8283   8.8283  10.8962  10.8963
    11.1895  11.1895  12.3949  12.3950  12.5730  12.5736

          k = 0.0000 0.2500-0.5000 (  6018 PWs)   bands (ev):

   -34.5465 -34.5465 -34.5348 -34.5348 -34.5227 -34.5227 -34.5099 -34.5099
   -15.3655 -15.3653 -15.3549 -15.3547 -15.2872 -15.2870 -15.2760 -15.2759
   -11.2445 -11.2442 -11.2398 -11.2394 -11.1114 -11.1110 -11.1059 -11.1055
   -11.0350 -11.0346 -11.0294 -11.0291 -10.8958 -10.8955 -10.8898 -10.8896
     3.6353   3.6359   3.6466   3.6472   4.8757   4.8780   4.8782   4.8806
     5.3381   5.3391   5.3405   5.3417   5.5974   5.5977   5.6120   5.6124
     9.0534   9.0535   9.0541   9.0543  10.2324  10.2328  10.2400  10.2404
    11.8744  11.8748  11.8785  11.8793  11.8985  11.8999

          k = 0.0000-0.5000-0.5000 (  6024 PWs)   bands (ev):

   -34.5402 -34.5402 -34.5289 -34.5289 -34.5289 -34.5289 -34.5157 -34.5157
   -15.3326 -15.3326 -15.3227 -15.3227 -15.3226 -15.3226 -15.3109 -15.3109
   -11.1950 -11.1950 -11.1945 -11.1945 -11.1942 -11.1942 -11.1937 -11.1937
   -10.9448 -10.9448 -10.9446 -10.9446 -10.9434 -10.9434 -10.9433 -10.9433
     4.2077   4.2077   4.2175   4.2175   4.2178   4.2178   4.2268   4.2268
     5.4657   5.4657   5.4757   5.4757   5.4760   5.4760   5.4866   5.4866
     9.8008   9.8008   9.8035   9.8035   9.8036   9.8036   9.8060   9.8060
    11.8665  11.8665  11.8703  11.8703  11.8709  11.8709

          k = 0.2500 0.2500 0.2500 (  6007 PWs)   bands (ev):

   -34.5532 -34.5532 -34.5282 -34.5282 -34.5215 -34.5215 -34.5109 -34.5109
   -15.3573 -15.3572 -15.3500 -15.3500 -15.3421 -15.3421 -15.2372 -15.2371
   -11.2508 -11.2506 -11.2472 -11.2467 -11.2442 -11.2439 -11.0321 -11.0320
   -10.9865 -10.9864 -10.9825 -10.9823 -10.9786 -10.9785 -10.8111 -10.8111
     2.8828   2.8831   4.5354   4.5363   4.5428   4.5428   4.5454   4.5459
     5.4708   5.4713   5.4727   5.4729   5.4805   5.4816   6.2524   6.2528
     9.0701   9.0701   9.0714   9.0714   9.0779   9.0781  10.9407  10.9408
    11.1398  11.1402  12.0209  12.0214  12.0222  12.0225

          k = 0.2500 0.2500-0.5000 (  6004 PWs)   bands (ev):

   -34.5439 -34.5439 -34.5323 -34.5323 -34.5252 -34.5252 -34.5123 -34.5123
   -15.3565 -15.3563 -15.3458 -15.3458 -15.3006 -15.3004 -15.2894 -15.2893
   -11.2588 -11.2585 -11.2544 -11.2541 -11.1650 -11.1644 -11.1598 -11.1597
   -10.9773 -10.9768 -10.9719 -10.9718 -10.8775 -10.8773 -10.8720 -10.8718
     3.6645   3.6652   3.6763   3.6766   4.3906   4.3916   4.3981   4.3989
     5.6966   5.6974   5.7018   5.7025   5.7384   5.7390   5.7525   5.7530
     9.4196   9.4199   9.4221   9.4224  10.3594  10.3598  10.3671  10.3675
    11.2550  11.2558  11.2573  11.2580  11.5375  11.5383

          k = 0.2500-0.5000-0.5000 (  6000 PWs)   bands (ev):

   -34.5401 -34.5401 -34.5289 -34.5289 -34.5289 -34.5289 -34.5156 -34.5156
   -15.3356 -15.3356 -15.3257 -15.3257 -15.3256 -15.3256 -15.3139 -15.3139
   -11.2395 -11.2394 -11.2391 -11.2388 -11.2333 -11.2330 -11.2326 -11.2326
   -10.8982 -10.8979 -10.8978 -10.8978 -10.8907 -10.8906 -10.8906 -10.8903
     3.8841   3.8842   3.8943   3.8943   3.8947   3.8947   3.9041   3.9044
     5.8749   5.8755   5.8849   5.8849   5.8852   5.8852   5.8956   5.8959
    10.1817  10.1823  10.1852  10.1853  10.1853  10.1855  10.1881  10.1887
    11.1069  11.1069  11.1077  11.1093  11.1101  11.1103

          k =-0.5000-0.5000-0.5000 (  6008 PWs)   bands (ev):

   -34.5401 -34.5401 -34.5289 -34.5289 -34.5289 -34.5289 -34.5156 -34.5156
   -15.3386 -15.3386 -15.3287 -15.3287 -15.3286 -15.3286 -15.3169 -15.3169
   -11.2719 -11.2719 -11.2713 -11.2713 -11.2647 -11.2647 -11.2640 -11.2640
   -10.8588 -10.8588 -10.8584 -10.8584 -10.8500 -10.8500 -10.8498 -10.8498
     3.6580   3.6580   3.6684   3.6684   3.6687   3.6687   3.6785   3.6785
     6.1908   6.1908   6.2003   6.2003   6.2007   6.2007   6.2112   6.2112
    10.6566  10.6566  10.6576  10.6576  10.6583  10.6583  10.6595  10.6595
    10.8432  10.8432  10.8442  10.8442  10.8450  10.8450

          k = 0.2500 0.0000 0.0000 (  6023 PWs)   bands (ev):

   -34.5658 -34.5658 -34.5272 -34.5272 -34.5141 -34.5141 -34.5068 -34.5068
   -15.3771 -15.3771 -15.3759 -15.3759 -15.3423 -15.3422 -15.1832 -15.1831
   -11.2850 -11.2845 -11.2843 -11.2843 -11.2412 -11.2410 -11.0367 -11.0366
   -11.0362 -11.0357 -10.9655 -10.9655 -10.8574 -10.8572 -10.8023 -10.8023
     2.1998   2.2001   4.6933   4.6938   4.6942   4.6946   4.7774   4.7774
     4.9992   4.9996   5.8323   5.8334   5.8343   5.8352   7.0171   7.0175
     8.0640   8.0644   8.0649   8.0659   8.6525   8.6527  10.9087  10.9088
    11.0373  11.0401  12.3186  12.3212  12.3477  12.3477

          k =-0.5000 0.0000 0.0000 (  5942 PWs)   bands (ev):

   -34.5473 -34.5473 -34.5439 -34.5439 -34.5141 -34.5141 -34.5087 -34.5087
   -15.3752 -15.3752 -15.3748 -15.3748 -15.2648 -15.2648 -15.2629 -15.2629
   -11.2447 -11.2447 -11.2443 -11.2443 -11.0885 -11.0885 -11.0861 -11.0861
   -11.0590 -11.0590 -11.0551 -11.0551 -10.8852 -10.8852 -10.8841 -10.8841
     3.4155   3.4155   3.4169   3.4169   5.1313   5.1313   5.1332   5.1332
     5.3584   5.3584   5.3589   5.3589   5.6489   5.6489   5.6508   5.6508
     8.7075   8.7075   8.7083   8.7083  10.3992  10.3992  10.4001  10.4001
    11.5205  11.5205  11.5212  11.5213  11.7897  11.7900

          k = 0.0000 0.2500-0.2500 (  6016 PWs)   bands (ev):

   -34.5589 -34.5589 -34.5255 -34.5255 -34.5216 -34.5216 -34.5079 -34.5079
   -15.3733 -15.3731 -15.3491 -15.3490 -15.3463 -15.3463 -15.2124 -15.2123
   -11.2697 -11.2695 -11.2373 -11.2371 -11.2369 -11.2366 -11.0403 -11.0397
   -10.9925 -10.9923 -10.9920 -10.9917 -10.9485 -10.9482 -10.8130 -10.8129
     2.5908   2.5913   4.7475   4.7488   4.8860   4.8869   4.8951   4.8964
     5.0369   5.0389   5.0476   5.0497   5.6903   5.6906   6.5043   6.5047
     8.4516   8.4518   8.8216   8.8219   8.8339   8.8343  10.8962  10.8963
    11.1882  11.1902  12.3947  12.3949  12.5735  12.5739

          k = 0.2500 0.0000-0.2500 (  6016 PWs)   bands (ev):

   -34.5588 -34.5588 -34.5277 -34.5277 -34.5187 -34.5187 -34.5087 -34.5087
   -15.3724 -15.3723 -15.3534 -15.3533 -15.3428 -15.3426 -15.2125 -15.2124
   -11.2696 -11.2692 -11.2396 -11.2395 -11.2343 -11.2341 -11.0405 -11.0401
   -10.9950 -10.9949 -10.9893 -10.9887 -10.9488 -10.9486 -10.8130 -10.8130
     2.5924   2.5928   4.7506   4.7514   4.8869   4.8903   4.8924   4.8962
     5.0364   5.0400   5.0435   5.0471   5.6882   5.6902   6.5018   6.5023
     8.4505   8.4516   8.8226   8.8231   8.8296   8.8297  10.8981  10.8985
    11.1899  11.1911  12.3943  12.3945  12.5729  12.5777

          k =-0.2500 0.0000-0.2500 (  6016 PWs)   bands (ev):

   -34.5588 -34.5588 -34.5277 -34.5277 -34.5187 -34.5187 -34.5087 -34.5087
   -15.3724 -15.3722 -15.3535 -15.3533 -15.3428 -15.3428 -15.2124 -15.2123
   -11.2696 -11.2692 -11.2400 -11.2397 -11.2346 -11.2345 -11.0401 -11.0398
   -10.9953 -10.9947 -10.9890 -10.9889 -10.9487 -10.9484 -10.8128 -10.8128
     2.5894   2.5897   4.7447   4.7455   4.8867   4.8904   4.8921   4.8955
     5.0392   5.0425   5.0462   5.0497   5.6908   5.6927   6.5067   6.5072
     8.4519   8.4531   8.8262   8.8264   8.8327   8.8332  10.8937  10.8940
    11.1879  11.1889  12.3952  12.3954  12.5664  12.5695

          k = 0.2500 0.0000 0.5000 (  6018 PWs)   bands (ev):

   -34.5465 -34.5465 -34.5348 -34.5348 -34.5227 -34.5227 -34.5099 -34.5099
   -15.3655 -15.3653 -15.3549 -15.3547 -15.2872 -15.2870 -15.2760 -15.2759
   -11.2446 -11.2443 -11.2398 -11.2395 -11.1110 -11.1108 -11.1055 -11.1052
   -11.0353 -11.0350 -11.0297 -11.0294 -10.8957 -10.8955 -10.8897 -10.8895
     3.6348   3.6352   3.6472   3.6477   4.8737   4.8747   4.8811   4.8824
     5.3370   5.3388   5.3412   5.3431   5.5969   5.5976   5.6122   5.6129
     9.0524   9.0529   9.0547   9.0552  10.2311  10.2314  10.2413  10.2416
    11.8730  11.8736  11.8813  11.8818  11.9005  11.9015

          k =-0.5000-0.2500 0.0000 (  6018 PWs)   bands (ev):

   -34.5441 -34.5441 -34.5395 -34.5395 -34.5184 -34.5184 -34.5118 -34.5118
   -15.3608 -15.3608 -15.3602 -15.3601 -15.2824 -15.2823 -15.2800 -15.2800
   -11.2425 -11.2421 -11.2419 -11.2417 -11.1088 -11.1085 -11.1082 -11.1080
   -11.0328 -11.0326 -11.0318 -11.0313 -10.8930 -10.8929 -10.8925 -10.8921
     3.6384   3.6389   3.6436   3.6442   4.8734   4.8750   4.8810   4.8826
     5.3366   5.3385   5.3414   5.3433   5.6022   5.6029   5.6070   5.6076
     9.0524   9.0530   9.0546   9.0552  10.2327  10.2330  10.2396  10.2399
    11.8739  11.8745  11.8800  11.8814  11.8980  11.9002

          k =-0.5000 0.0000 0.5000 (  6024 PWs)   bands (ev):

   -34.5402 -34.5402 -34.5289 -34.5289 -34.5289 -34.5289 -34.5157 -34.5157
   -15.3326 -15.3326 -15.3227 -15.3227 -15.3226 -15.3226 -15.3109 -15.3109
   -11.1992 -11.1992 -11.1987 -11.1987 -11.1899 -11.1899 -11.1893 -11.1893
   -10.9495 -10.9495 -10.9492 -10.9492 -10.9390 -10.9390 -10.9388 -10.9388
     4.2063   4.2063   4.2173   4.2173   4.2178   4.2178   4.2281   4.2281
     5.4670   5.4670   5.4756   5.4756   5.4760   5.4760   5.4858   5.4858
     9.7997   9.7997   9.8020   9.8020   9.8049   9.8049   9.8070   9.8070
    11.8666  11.8666  11.8704  11.8704  11.8711  11.8711

          k =-0.2500 0.2500-0.2500 (  6007 PWs)   bands (ev):

   -34.5532 -34.5532 -34.5282 -34.5282 -34.5215 -34.5215 -34.5109 -34.5109
   -15.3572 -15.3571 -15.3500 -15.3499 -15.3421 -15.3420 -15.2373 -15.2372
   -11.2507 -11.2504 -11.2471 -11.2470 -11.2437 -11.2433 -11.0324 -11.0321
   -10.9869 -10.9865 -10.9828 -10.9823 -10.9787 -10.9783 -10.8113 -10.8113
     2.8864   2.8870   4.5341   4.5356   4.5427   4.5428   4.5498   4.5512
     5.4663   5.4670   5.4727   5.4727   5.4789   5.4796   6.2467   6.2474
     9.0658   9.0662   9.0716   9.0717   9.0771   9.0775  10.9422  10.9422
    11.1411  11.1418  12.0186  12.0194  12.0203  12.0220

          k = 0.2500-0.2500-0.2500 (  6007 PWs)   bands (ev):

   -34.5532 -34.5532 -34.5282 -34.5282 -34.5215 -34.5215 -34.5109 -34.5109
   -15.3572 -15.3571 -15.3500 -15.3500 -15.3420 -15.3420 -15.2373 -15.2373
   -11.2502 -11.2499 -11.2474 -11.2469 -11.2434 -11.2432 -11.0325 -11.0323
   -10.9866 -10.9866 -10.9829 -10.9826 -10.9790 -10.9787 -10.8114 -10.8114
     2.8903   2.8906   4.5396   4.5401   4.5429   4.5430   4.5492   4.5501
     5.4638   5.4648   5.4726   5.4726   5.4743   5.4748   6.2415   6.2419
     9.0652   9.0654   9.0719   9.0720   9.0732   9.0733  10.9438  10.9439
    11.1429  11.1434  12.0184  12.0186  12.0193  12.0201

          k =-0.2500 0.2500 0.5000 (  6004 PWs)   bands (ev):

   -34.5439 -34.5439 -34.5323 -34.5323 -34.5252 -34.5252 -34.5123 -34.5123
   -15.3563 -15.3563 -15.3458 -15.3456 -15.3006 -15.3006 -15.2895 -15.2893
   -11.2584 -11.2583 -11.2540 -11.2538 -11.1649 -11.1648 -11.1602 -11.1597
   -10.9772 -10.9770 -10.9722 -10.9717 -10.8777 -10.8774 -10.8721 -10.8720
     3.6708   3.6711   3.6822   3.6829   4.3871   4.3879   4.3944   4.3955
     5.6987   5.6996   5.7038   5.7043   5.7320   5.7327   5.7450   5.7458
     9.4191   9.4194   9.4217   9.4219  10.3599  10.3603  10.3676  10.3680
    11.2552  11.2561  11.2575  11.2584  11.5328  11.5336

          k =-0.5000-0.2500 0.2500 (  6004 PWs)   bands (ev):

   -34.5423 -34.5423 -34.5364 -34.5364 -34.5215 -34.5215 -34.5136 -34.5136
   -15.3522 -15.3522 -15.3510 -15.3509 -15.2960 -15.2959 -15.2930 -15.2930
   -11.2569 -11.2565 -11.2562 -11.2558 -11.1626 -11.1623 -11.1621 -11.1620
   -10.9752 -10.9748 -10.9743 -10.9740 -10.8750 -10.8749 -10.8746 -10.8741
     3.6729   3.6734   3.6743   3.6744   4.3861   4.3869   4.3988   4.3997
     5.6966   5.6974   5.7049   5.7055   5.7405   5.7413   5.7424   5.7436
     9.4183   9.4185   9.4230   9.4232  10.3630  10.3637  10.3639  10.3644
    11.2549  11.2562  11.2569  11.2579  11.5340  11.5371

          k = 0.5000-0.2500-0.2500 (  6004 PWs)   bands (ev):

   -34.5423 -34.5423 -34.5364 -34.5364 -34.5215 -34.5215 -34.5136 -34.5136
   -15.3522 -15.3522 -15.3509 -15.3509 -15.2959 -15.2959 -15.2930 -15.2930
   -11.2567 -11.2565 -11.2562 -11.2560 -11.1627 -11.1625 -11.1620 -11.1618
   -10.9749 -10.9749 -10.9743 -10.9742 -10.8750 -10.8750 -10.8743 -10.8743
     3.6679   3.6681   3.6792   3.6795   4.3926   4.3927   4.3934   4.3935
     5.6985   5.6995   5.7011   5.7022   5.7370   5.7371   5.7479   5.7480
     9.4203   9.4205   9.4210   9.4212  10.3601  10.3603  10.3670  10.3672
    11.2547  11.2547  11.2588  11.2589  11.5359  11.5361

          k =-0.5000 0.2500 0.5000 (  6000 PWs)   bands (ev):

   -34.5401 -34.5401 -34.5289 -34.5289 -34.5289 -34.5289 -34.5156 -34.5156
   -15.3356 -15.3356 -15.3257 -15.3257 -15.3256 -15.3256 -15.3139 -15.3139
   -11.2403 -11.2402 -11.2398 -11.2395 -11.2326 -11.2322 -11.2318 -11.2317
   -10.8992 -10.8988 -10.8987 -10.8987 -10.8898 -10.8898 -10.8897 -10.8894
     3.8835   3.8842   3.8943   3.8943   3.8946   3.8947   3.9041   3.9048
     5.8759   5.8764   5.8848   5.8849   5.8852   5.8853   5.8947   5.8953
    10.1813  10.1817  10.1840  10.1841  10.1864  10.1866  10.1887  10.1890
    11.1075  11.1080  11.1086  11.1092  11.1099  11.1106

     the Fermi energy is     9.4735 ev

!    total energy              =   -2248.42538263 Ry
     Harris-Foulkes estimate   =   -2248.42538296 Ry
     estimated scf accuracy    <       0.00000076 Ry

     total all-electron energy =    -90252.768759 Ry

     The total energy is the sum of the following terms:

     one-electron contribution =     -47.14994217 Ry
     hartree contribution      =      44.09148876 Ry
     xc contribution           =    -257.25429045 Ry
     ewald contribution        =    -240.05108433 Ry
     one-center paw contrib.   =   -1748.05973058 Ry
     smearing contrib. (-TS)   =      -0.00182386 Ry

     convergence has been achieved in   6 iterations

     Forces acting on atoms (cartesian axes, Ry/au):

     atom    1 type  1   force =    -0.00027537    0.00079083    0.00079083
     atom    2 type  1   force =     0.00030511    0.00071110    0.00071110
     atom    3 type  1   force =     0.00003071    0.00042587    0.00048390
     atom    4 type  1   force =     0.00003071    0.00048390    0.00042587
     atom    5 type  2   force =     0.00016059   -0.00284746   -0.00284746
     atom    6 type  2   force =     0.00000057   -0.00007427    0.00032425
     atom    7 type  2   force =     0.00000379    0.00004635    0.00004635
     atom    8 type  2   force =     0.00000057    0.00032425   -0.00007427
     atom    9 type  2   force =    -0.00006334    0.00004654   -0.00012434
     atom   10 type  2   force =    -0.00006950    0.00029169    0.00029169
     atom   11 type  2   force =    -0.00006334   -0.00012434    0.00004654
     atom   12 type  2   force =    -0.00006050   -0.00007447   -0.00007447

     Total force =     0.004468     Total SCF correction =     0.000571
     SCF correction compared to forces is large: reduce conv_thr to get better values

     Writing output data file 2385.save
 
     init_run     :      7.33s CPU      7.99s WALL (       1 calls)
     electrons    :     83.30s CPU     85.39s WALL (       1 calls)
     forces       :      1.70s CPU      1.88s WALL (       1 calls)

     Called by init_run:
     wfcinit      :      6.32s CPU      6.63s WALL (       1 calls)
     potinit      :      0.62s CPU      0.70s WALL (       1 calls)

     Called by electrons:
     c_bands      :     69.22s CPU     70.34s WALL (       6 calls)
     sum_band     :      9.72s CPU     10.13s WALL (       6 calls)
     v_of_rho     :      0.09s CPU      0.09s WALL (       7 calls)
     newd         :      0.87s CPU      1.05s WALL (       7 calls)
     PAW_pot      :      4.05s CPU      4.13s WALL (       7 calls)
     mix_rho      :      0.07s CPU      0.07s WALL (       6 calls)

     Called by c_bands:
     init_us_2    :      0.45s CPU      0.46s WALL (     336 calls)
     cegterg      :     62.36s CPU     63.45s WALL (     144 calls)

     Called by sum_band:
     sum_band:bec :      0.68s CPU      0.69s WALL (     144 calls)
     addusdens    :      0.52s CPU      0.73s WALL (       6 calls)

     Called by *egterg:
     h_psi        :     47.67s CPU     48.68s WALL (     670 calls)
     s_psi        :      3.27s CPU      3.29s WALL (     670 calls)
     g_psi        :      0.20s CPU      0.20s WALL (     502 calls)
     cdiaghg      :      5.16s CPU      5.26s WALL (     646 calls)

     Called by h_psi:
     h_psi:pot    :     47.01s CPU     47.97s WALL (     670 calls)
     h_psi:calbec :      2.61s CPU      2.69s WALL (     670 calls)
     vloc_psi     :     41.09s CPU     41.94s WALL (     670 calls)
     add_vuspsi   :      3.30s CPU      3.33s WALL (     670 calls)

     General routines
     calbec       :      3.90s CPU      4.07s WALL (     910 calls)
     fft          :      0.09s CPU      0.28s WALL (     140 calls)
     fftw         :     43.07s CPU     43.98s WALL (  125272 calls)
     davcio       :      0.00s CPU      0.03s WALL (      24 calls)
 
     Parallel routines
     fft_scatter  :      7.76s CPU      8.03s WALL (  125412 calls)
 
     PWSCF        :  1m33.21s CPU     4m13.23s WALL

 
   This run was terminated on:  13:46:42  30Nov2022            

=------------------------------------------------------------------------------=
   JOB DONE.
=------------------------------------------------------------------------------=
Removing 2385 from /home/shaharpit/tmp
