
     Program PWSCF v.6.1 (svn rev. 13369) starts on 30Nov2022 at 13:42:28 

     This program is part of the open-source Quantum ESPRESSO suite
     for quantum simulation of materials; please cite
         "P. Giannozzi et al., J. Phys.:Condens. Matter 21 395502 (2009);
          URL http://www.quantum-espresso.org", 
     in publications or presentations arising from this work. More details at
     http://www.quantum-espresso.org/quote

     Parallel version (MPI), running on     4 processors
     R & G space division:  proc/nbgrp/npool/nimage =       4
     Reading input from ./fcc_25_0.9.in
Warning: card &IONS ignored
Warning: card 	ION_DYNAMICS='BFGS', ignored
Warning: card / ignored
Warning: card &CELL ignored
Warning: card / ignored

     Current dimensions of program PWSCF are:
     Max number of different atomic species (ntypx) = 10
     Max number of k-points (npk) =  40000
     Max angular momentum in pseudopotentials (lmaxx) =  3
               file Gd.rel-pbe-spdn-kjpaw_psl.1.0.0.UPF: wavefunction(s)  5P 5P renormalized
               file H.pbe-kjpaw_psl.0.1.UPF: wavefunction(s)  1S renormalized

     Subspace diagonalization in iterative solution of the eigenvalue problem:
     a serial algorithm will be used

 
     Parallelization info
     --------------------
     sticks:   dense  smooth     PW     G-vecs:    dense   smooth      PW
     Min         370     370    109                10846    10846    1713
     Max         371     371    110                10849    10849    1716
     Sum        1481    1481    437                43387    43387    6859
 


     bravais-lattice index     =            0
     lattice parameter (alat)  =       9.6754  a.u.
     unit-cell volume          =     905.7461 (a.u.)^3
     number of atoms/cell      =            6
     number of atomic types    =            2
     number of electrons       =        46.00
     number of Kohn-Sham states=           56
     kinetic-energy cutoff     =      50.0000  Ry
     charge density cutoff     =     200.0000  Ry
     convergence threshold     =      1.0E-06
     mixing beta               =       0.7000
     number of iterations used =            8  plain     mixing
     Exchange-correlation      =  SLA  PW   PBX  PBC ( 1  4  3  4 0 0)
     Non magnetic calculation with spin-orbit


     celldm(1)=   9.675398  celldm(2)=   0.000000  celldm(3)=   0.000000
     celldm(4)=   0.000000  celldm(5)=   0.000000  celldm(6)=   0.000000

     crystal axes: (cart. coord. in units of alat)
               a(1) = (   1.000000   0.000000   0.000000 )  
               a(2) = (   0.000000   1.000000   0.000000 )  
               a(3) = (   0.000000   0.000000   1.000000 )  

     reciprocal axes: (cart. coord. in units 2 pi/alat)
               b(1) = (  1.000000  0.000000  0.000000 )  
               b(2) = (  0.000000  1.000000  0.000000 )  
               b(3) = (  0.000000  0.000000  1.000000 )  


     PseudoPot. # 1 for Gd read from file:
     /home/shaharpit/MeamGdH/dft/qe_potentials/Gd.rel-pbe-spdn-kjpaw_psl.1.0.0.UPF
     MD5 check sum: cf50ec46d1536b4a0251694df1946a53
     Pseudo is Projector augmented-wave + core cor, Zval = 11.0
     Generated using "atomic" code by A. Dal Corso  v.6.2.2
     Shape of augmentation charge: PSQ
     Using radial grid of 1263 points, 10 beta functions with: 
                l(1) =   0
                l(2) =   0
                l(3) =   1
                l(4) =   1
                l(5) =   1
                l(6) =   1
                l(7) =   2
                l(8) =   2
                l(9) =   2
               l(10) =   2
     Q(r) pseudized with 0 coefficients 


     PseudoPot. # 2 for  H read from file:
     /home/shaharpit/MeamGdH/dft/qe_potentials/H.pbe-kjpaw_psl.0.1.UPF
     MD5 check sum: fbb168fef676c0aaadbafd73f5b1efa8
     Pseudo is Projector augmented-wave, Zval =  1.0
     Generated using "atomic" code by A. Dal Corso  v.5.0.2 svn rev. 9415
     Shape of augmentation charge: PSQ
     Using radial grid of  929 points,  2 beta functions with: 
                l(1) =   0
                l(2) =   0
     Q(r) pseudized with 0 coefficients 


     atomic species   valence    mass     pseudopotential
        Gd            11.00   157.25000     Gd( 1.00)
        H              1.00     1.00794      H( 1.00)

     No symmetry found



   Cartesian axes

     site n.     atom                  positions (alat units)
         1           Gd  tau(   1) = (   0.0000000   0.0000000   0.0000000  )
         2           Gd  tau(   2) = (   0.0000000   0.5000000   0.5000000  )
         3           Gd  tau(   3) = (   0.5000000   0.0000000   0.5000000  )
         4           Gd  tau(   4) = (   0.5000000   0.5000000   0.0000000  )
         5           H   tau(   5) = (   0.2500000   0.7539000   0.7539000  )
         6           H   tau(   6) = (   0.2500000   0.7501000   0.2500000  )

     number of k points=    36  gaussian smearing, width (Ry)=  0.0100
                       cart. coord. in units 2pi/alat
        k(    1) = (   0.0000000   0.0000000   0.0000000), wk =   0.0156250
        k(    2) = (   0.0000000   0.0000000   0.2500000), wk =   0.0312500
        k(    3) = (   0.0000000   0.0000000  -0.5000000), wk =   0.0156250
        k(    4) = (   0.0000000   0.2500000   0.2500000), wk =   0.0312500
        k(    5) = (   0.0000000   0.2500000  -0.5000000), wk =   0.0312500
        k(    6) = (   0.0000000  -0.5000000  -0.5000000), wk =   0.0156250
        k(    7) = (   0.2500000   0.2500000   0.2500000), wk =   0.0312500
        k(    8) = (   0.2500000   0.2500000  -0.5000000), wk =   0.0312500
        k(    9) = (   0.2500000  -0.5000000  -0.5000000), wk =   0.0312500
        k(   10) = (  -0.5000000  -0.5000000  -0.5000000), wk =   0.0156250
        k(   11) = (   0.2500000   0.0000000   0.0000000), wk =   0.0312500
        k(   12) = (   0.0000000   0.2500000   0.0000000), wk =   0.0312500
        k(   13) = (  -0.5000000   0.0000000   0.0000000), wk =   0.0156250
        k(   14) = (   0.0000000  -0.5000000   0.0000000), wk =   0.0156250
        k(   15) = (   0.0000000  -0.2500000   0.2500000), wk =   0.0312500
        k(   16) = (   0.2500000   0.0000000  -0.2500000), wk =   0.0312500
        k(   17) = (  -0.2500000   0.0000000  -0.2500000), wk =   0.0312500
        k(   18) = (   0.2500000  -0.2500000   0.0000000), wk =   0.0312500
        k(   19) = (  -0.2500000  -0.2500000   0.0000000), wk =   0.0312500
        k(   20) = (   0.2500000   0.0000000   0.5000000), wk =   0.0312500
        k(   21) = (  -0.5000000  -0.2500000   0.0000000), wk =   0.0312500
        k(   22) = (   0.0000000  -0.5000000   0.2500000), wk =   0.0312500
        k(   23) = (   0.2500000  -0.5000000   0.0000000), wk =   0.0312500
        k(   24) = (  -0.5000000   0.0000000   0.2500000), wk =   0.0312500
        k(   25) = (  -0.5000000   0.0000000   0.5000000), wk =   0.0156250
        k(   26) = (  -0.5000000   0.5000000   0.0000000), wk =   0.0156250
        k(   27) = (  -0.2500000  -0.2500000   0.2500000), wk =   0.0312500
        k(   28) = (  -0.2500000   0.2500000  -0.2500000), wk =   0.0312500
        k(   29) = (   0.2500000  -0.2500000  -0.2500000), wk =   0.0312500
        k(   30) = (  -0.2500000   0.2500000   0.5000000), wk =   0.0312500
        k(   31) = (  -0.5000000  -0.2500000   0.2500000), wk =   0.0312500
        k(   32) = (   0.5000000  -0.2500000  -0.2500000), wk =   0.0312500
        k(   33) = (  -0.2500000  -0.5000000   0.2500000), wk =   0.0312500
        k(   34) = (  -0.2500000   0.5000000  -0.2500000), wk =   0.0312500
        k(   35) = (  -0.5000000   0.2500000   0.5000000), wk =   0.0312500
        k(   36) = (  -0.5000000   0.5000000   0.2500000), wk =   0.0312500

     Dense  grid:    43387 G-vectors     FFT dimensions: (  45,  45,  45)

     Estimated max dynamical RAM per process >     127.52MB

     Estimated total allocated dynamical RAM >     510.09MB

     Initial potential from superposition of free atoms

     starting charge   45.92379, renormalised to   46.00000
     Starting wfc are  108 randomized atomic wfcs
     Checking if some PAW data can be deallocated... 

     total cpu time spent up to now is       11.2 secs

     per-process dynamical memory:   150.8 Mb

     Self-consistent Calculation

     iteration #  1     ecut=    50.00 Ry     beta=0.70
     Davidson diagonalization with overlap
     ethr =  1.00E-02,  avg # of iterations =  2.0

     Threshold (ethr) on eigenvalues was too large:
     Diagonalizing with lowered threshold

     Davidson diagonalization with overlap
     ethr =  5.78E-04,  avg # of iterations =  1.7

     total cpu time spent up to now is       39.3 secs

     total energy              =   -2240.81500710 Ry
     Harris-Foulkes estimate   =   -2241.00917652 Ry
     estimated scf accuracy    <       0.28091108 Ry

     iteration #  2     ecut=    50.00 Ry     beta=0.70
     Davidson diagonalization with overlap
     ethr =  6.11E-04,  avg # of iterations =  3.0

     total cpu time spent up to now is       56.7 secs

     total energy              =   -2240.85394302 Ry
     Harris-Foulkes estimate   =   -2240.96342370 Ry
     estimated scf accuracy    <       0.21394383 Ry

     iteration #  3     ecut=    50.00 Ry     beta=0.70
     Davidson diagonalization with overlap
     ethr =  4.65E-04,  avg # of iterations =  2.0

     total cpu time spent up to now is       72.3 secs

     total energy              =   -2240.90581804 Ry
     Harris-Foulkes estimate   =   -2240.91532818 Ry
     estimated scf accuracy    <       0.02465198 Ry

     iteration #  4     ecut=    50.00 Ry     beta=0.70
     Davidson diagonalization with overlap
     ethr =  5.36E-05,  avg # of iterations =  2.0

     total cpu time spent up to now is       86.6 secs

     total energy              =   -2240.91005118 Ry
     Harris-Foulkes estimate   =   -2240.91020431 Ry
     estimated scf accuracy    <       0.00041087 Ry

     iteration #  5     ecut=    50.00 Ry     beta=0.70
     Davidson diagonalization with overlap
     ethr =  8.93E-07,  avg # of iterations =  4.1

     total cpu time spent up to now is      106.1 secs

     total energy              =   -2240.91019992 Ry
     Harris-Foulkes estimate   =   -2240.91021183 Ry
     estimated scf accuracy    <       0.00004082 Ry

     iteration #  6     ecut=    50.00 Ry     beta=0.70
     Davidson diagonalization with overlap
     ethr =  8.87E-08,  avg # of iterations =  3.8

     total cpu time spent up to now is      129.3 secs

     total energy              =   -2240.91020115 Ry
     Harris-Foulkes estimate   =   -2240.91022170 Ry
     estimated scf accuracy    <       0.00005381 Ry

     iteration #  7     ecut=    50.00 Ry     beta=0.70
     Davidson diagonalization with overlap
     ethr =  8.87E-08,  avg # of iterations =  2.9

     total cpu time spent up to now is      193.0 secs

     total energy              =   -2240.91021154 Ry
     Harris-Foulkes estimate   =   -2240.91021195 Ry
     estimated scf accuracy    <       0.00000134 Ry

     iteration #  8     ecut=    50.00 Ry     beta=0.70
     Davidson diagonalization with overlap
     ethr =  2.91E-09,  avg # of iterations =  3.4

     total cpu time spent up to now is      260.1 secs

     End of self-consistent calculation

          k = 0.0000 0.0000 0.0000 (  5449 PWs)   bands (ev):

   -33.8063 -33.8063 -33.7256 -33.7256 -33.7185 -33.7185 -33.7104 -33.7104
   -14.6116 -14.6116 -14.5995 -14.5995 -14.5866 -14.5866 -14.3062 -14.3062
   -10.5848 -10.5848 -10.5432 -10.5432 -10.4934 -10.4934 -10.2116 -10.2116
   -10.1926 -10.1926 -10.1805 -10.1805  -9.8961  -9.8961  -9.8903  -9.8903
     3.8414   3.8414   5.6885   5.6885   7.8169   7.8169   8.3133   8.3133
     8.3186   8.3186   8.3211   8.3211   9.2689   9.2689  10.8687  10.8687
    11.6211  11.6211  11.7953  11.7953  11.8039  11.8039  11.9775  11.9775

          k = 0.0000 0.0000 0.2500 (  5430 PWs)   bands (ev):

   -33.7938 -33.7938 -33.7332 -33.7332 -33.7216 -33.7216 -33.7121 -33.7121
   -14.6069 -14.6067 -14.5909 -14.5894 -14.5574 -14.5555 -14.3502 -14.3499
   -10.5489 -10.5487 -10.4794 -10.4777 -10.4543 -10.4519 -10.2552 -10.2538
   -10.2212 -10.2211 -10.1502 -10.1502 -10.0019 -10.0016  -9.9355  -9.9354
     4.2450   4.2459   5.6306   5.6318   8.0491   8.0504   8.4466   8.4467
     8.7744   8.7747   8.7765   8.7775   9.6377   9.6377  10.5190  10.5194
    10.9554  10.9561  11.5785  11.5800  12.0590  12.0591  12.1048  12.1049

          k = 0.0000 0.0000-0.5000 (  5406 PWs)   bands (ev):

   -33.7676 -33.7676 -33.7581 -33.7581 -33.7223 -33.7223 -33.7126 -33.7126
   -14.6009 -14.6009 -14.5930 -14.5930 -14.4588 -14.4588 -14.4503 -14.4503
   -10.4754 -10.4754 -10.4697 -10.4697 -10.2960 -10.2960 -10.2888 -10.2888
   -10.2433 -10.2433 -10.2362 -10.2362 -10.0467 -10.0467 -10.0384 -10.0384
     5.0977   5.0977   5.1298   5.1298   8.4414   8.4414   8.4554   8.4554
     9.4442   9.4442   9.4455   9.4455  10.3038  10.3038  10.3058  10.3058
    10.6750  10.6750  10.6767  10.6767  11.8725  11.8725  11.8783  11.8783

          k = 0.0000 0.2500 0.2500 (  5393 PWs)   bands (ev):

   -33.7831 -33.7831 -33.7326 -33.7326 -33.7293 -33.7293 -33.7155 -33.7155
   -14.5959 -14.5945 -14.5667 -14.5650 -14.5602 -14.5571 -14.3882 -14.3878
   -10.5205 -10.5197 -10.4642 -10.4639 -10.4311 -10.4299 -10.2429 -10.2415
   -10.1788 -10.1786 -10.1754 -10.1752 -10.1103 -10.1102  -9.9497  -9.9497
     4.5147   4.5155   5.6792   5.6806   8.0025   8.0036   8.8821   8.8824
     9.0538   9.0545   9.1675   9.1676   9.8437   9.8438  10.4998  10.5002
    10.6282  10.6287  11.1599  11.1602  11.4544  11.4545  12.0597  12.0598

          k = 0.0000 0.2500-0.5000 (  5390 PWs)   bands (ev):

   -33.7614 -33.7614 -33.7520 -33.7520 -33.7284 -33.7284 -33.7187 -33.7187
   -14.5842 -14.5837 -14.5736 -14.5732 -14.4832 -14.4825 -14.4724 -14.4717
   -10.4991 -10.4989 -10.4446 -10.4444 -10.3288 -10.3271 -10.2857 -10.2854
   -10.2410 -10.2378 -10.2019 -10.2015 -10.0628 -10.0621 -10.0377 -10.0372
     5.1808   5.1819   5.2172   5.2185   8.5707   8.5710   8.6380   8.6393
     9.7912   9.7929   9.8260   9.8268  10.1832  10.1835  10.1885  10.1891
    10.5232  10.5235  10.5419  10.5424  11.4138  11.4139  11.4275  11.4279

          k = 0.0000-0.5000-0.5000 (  5440 PWs)   bands (ev):

   -33.7506 -33.7506 -33.7413 -33.7413 -33.7392 -33.7392 -33.7292 -33.7292
   -14.5429 -14.5429 -14.5361 -14.5361 -14.5250 -14.5250 -14.5174 -14.5174
   -10.4481 -10.4481 -10.4474 -10.4474 -10.3808 -10.3808 -10.3806 -10.3806
   -10.1307 -10.1307 -10.1287 -10.1287 -10.0929 -10.0929 -10.0922 -10.0922
     5.2709   5.2709   5.2972   5.2972   8.8067   8.8067   8.8068   8.8068
     9.8679   9.8679   9.8703   9.8703  10.5622  10.5622  10.5626  10.5626
    10.7425  10.7425  10.7428  10.7428  10.8053  10.8053  10.8057  10.8057

          k = 0.2500 0.2500 0.2500 (  5395 PWs)   bands (ev):

   -33.7742 -33.7742 -33.7363 -33.7363 -33.7293 -33.7293 -33.7207 -33.7207
   -14.5751 -14.5735 -14.5686 -14.5643 -14.5587 -14.5534 -14.4206 -14.4201
   -10.5097 -10.5090 -10.4800 -10.4784 -10.4363 -10.4347 -10.2162 -10.2152
   -10.1823 -10.1813 -10.1615 -10.1600 -10.1434 -10.1424  -9.9488  -9.9488
     4.6537   4.6544   5.6485   5.6496   8.0415   8.0420   9.0045   9.0046
     9.2970   9.2982   9.5873   9.5883  10.0213  10.0216  10.4861  10.4868
    10.5779  10.5783  11.0784  11.0786  11.2804  11.2806  12.0518  12.0519

          k = 0.2500 0.2500-0.5000 (  5420 PWs)   bands (ev):

   -33.7569 -33.7569 -33.7481 -33.7481 -33.7329 -33.7329 -33.7224 -33.7224
   -14.5735 -14.5730 -14.5626 -14.5621 -14.5039 -14.5034 -14.4875 -14.4871
   -10.5201 -10.5198 -10.4586 -10.4581 -10.3993 -10.3984 -10.3439 -10.3438
   -10.1728 -10.1717 -10.1286 -10.1284 -10.0393 -10.0388 -10.0170 -10.0167
     5.0633   5.0638   5.2604   5.2605   8.2227   8.2229   9.2316   9.2347
     9.4641   9.4675  10.1595  10.1633  10.1956  10.1989  10.2337  10.2347
    10.6967  10.6969  11.2740  11.2742  11.4870  11.4892  11.5001  11.5021

          k = 0.2500-0.5000-0.5000 (  5452 PWs)   bands (ev):

   -33.7505 -33.7505 -33.7412 -33.7412 -33.7391 -33.7391 -33.7292 -33.7292
   -14.5488 -14.5487 -14.5418 -14.5417 -14.5292 -14.5291 -14.5214 -14.5213
   -10.4990 -10.4986 -10.4951 -10.4947 -10.4305 -10.4304 -10.4253 -10.4252
   -10.0716 -10.0714 -10.0653 -10.0650 -10.0389 -10.0389 -10.0326 -10.0326
     5.1071   5.1074   5.1325   5.1327   8.4909   8.4910   8.4923   8.4924
    10.0904  10.0910  10.0944  10.0949  10.8263  10.8263  10.8380  10.8380
    11.1175  11.1183  11.1266  11.1275  11.5073  11.5074  11.5151  11.5152

          k =-0.5000-0.5000-0.5000 (  5400 PWs)   bands (ev):

   -33.7505 -33.7505 -33.7412 -33.7412 -33.7390 -33.7390 -33.7291 -33.7291
   -14.5545 -14.5545 -14.5475 -14.5475 -14.5332 -14.5332 -14.5254 -14.5254
   -10.5365 -10.5365 -10.5324 -10.5324 -10.4666 -10.4666 -10.4610 -10.4610
   -10.0224 -10.0224 -10.0150 -10.0150  -9.9934  -9.9934  -9.9861  -9.9861
     4.9596   4.9596   4.9843   4.9843   8.2298   8.2298   8.2309   8.2309
    10.4043  10.4043  10.4098  10.4098  11.3733  11.3734  11.3750  11.3750
    11.5888  11.5888  11.5901  11.5901  11.6982  11.6982  11.7000  11.7000

          k = 0.2500 0.0000 0.0000 (  5430 PWs)   bands (ev):

   -33.7937 -33.7937 -33.7345 -33.7345 -33.7184 -33.7184 -33.7140 -33.7140
   -14.6016 -14.6004 -14.5983 -14.5981 -14.5550 -14.5536 -14.3501 -14.3498
   -10.5352 -10.5348 -10.5143 -10.5137 -10.4322 -10.4314 -10.2409 -10.2404
   -10.2351 -10.2340 -10.1504 -10.1502  -9.9979  -9.9974  -9.9397  -9.9396
     4.1970   4.1974   5.8003   5.8005   7.7075   7.7078   8.6588   8.6606
     8.7708   8.7719   8.7751   8.7783   9.5857   9.5857  10.7177  10.7179
    10.7959  10.7969  11.5854  11.5869  12.0498  12.0507  12.1138  12.1148

          k = 0.0000 0.2500 0.0000 (  5430 PWs)   bands (ev):

   -33.7938 -33.7938 -33.7324 -33.7324 -33.7229 -33.7229 -33.7115 -33.7115
   -14.6044 -14.6040 -14.5947 -14.5941 -14.5550 -14.5548 -14.3500 -14.3499
   -10.5353 -10.5352 -10.5140 -10.5136 -10.4318 -10.4317 -10.2420 -10.2413
   -10.2337 -10.2333 -10.1505 -10.1504  -9.9978  -9.9976  -9.9396  -9.9396
     4.1970   4.1973   5.8003   5.8004   7.7075   7.7078   8.6601   8.6602
     8.7712   8.7716   8.7762   8.7764   9.5857   9.5857  10.7172  10.7174
    10.7966  10.7973  11.5859  11.5867  12.0502  12.0503  12.1143  12.1143

          k =-0.5000 0.0000 0.0000 (  5406 PWs)   bands (ev):

   -33.7650 -33.7650 -33.7617 -33.7617 -33.7183 -33.7183 -33.7156 -33.7156
   -14.5978 -14.5978 -14.5968 -14.5968 -14.4598 -14.4598 -14.4486 -14.4486
   -10.4799 -10.4799 -10.4712 -10.4712 -10.2967 -10.2967 -10.2917 -10.2917
   -10.2446 -10.2446 -10.2168 -10.2168 -10.0495 -10.0495 -10.0443 -10.0443
     4.6508   4.6508   5.9234   5.9234   7.4250   7.4250   9.1412   9.1412
     9.4412   9.4412   9.4513   9.4513  10.1782  10.1782  10.4522  10.4522
    10.6197  10.6197  10.6334  10.6334  11.8369  11.8369  11.9642  11.9642

          k = 0.0000-0.5000 0.0000 (  5406 PWs)   bands (ev):

   -33.7686 -33.7686 -33.7567 -33.7567 -33.7236 -33.7236 -33.7118 -33.7118
   -14.6021 -14.6021 -14.5922 -14.5922 -14.4620 -14.4620 -14.4467 -14.4467
   -10.4813 -10.4813 -10.4697 -10.4697 -10.2986 -10.2986 -10.2892 -10.2892
   -10.2454 -10.2454 -10.2164 -10.2164 -10.0526 -10.0526 -10.0413 -10.0413
     4.6507   4.6507   5.9233   5.9233   7.4252   7.4252   9.1414   9.1414
     9.4413   9.4413   9.4510   9.4510  10.1782  10.1782  10.4523  10.4523
    10.6197  10.6197  10.6335  10.6335  11.8370  11.8370  11.9643  11.9643

          k = 0.0000-0.2500 0.2500 (  5393 PWs)   bands (ev):

   -33.7831 -33.7831 -33.7326 -33.7326 -33.7293 -33.7293 -33.7155 -33.7155
   -14.5958 -14.5946 -14.5667 -14.5650 -14.5600 -14.5572 -14.3883 -14.3877
   -10.5204 -10.5198 -10.4644 -10.4638 -10.4311 -10.4299 -10.2434 -10.2411
   -10.1787 -10.1786 -10.1754 -10.1752 -10.1104 -10.1101  -9.9497  -9.9496
     4.5144   4.5157   5.6794   5.6804   8.0032   8.0035   8.8819   8.8822
     9.0538   9.0544   9.1673   9.1676   9.8438   9.8438  10.5000  10.5001
    10.6285  10.6288  11.1599  11.1601  11.4544  11.4545  12.0597  12.0598

          k = 0.2500 0.0000-0.2500 (  5393 PWs)   bands (ev):

   -33.7830 -33.7830 -33.7355 -33.7355 -33.7253 -33.7253 -33.7168 -33.7168
   -14.5948 -14.5946 -14.5709 -14.5641 -14.5609 -14.5540 -14.3883 -14.3879
   -10.5203 -10.5198 -10.4653 -10.4624 -10.4319 -10.4287 -10.2427 -10.2422
   -10.1809 -10.1794 -10.1743 -10.1734 -10.1109 -10.1105  -9.9496  -9.9496
     4.5165   4.5174   5.6807   5.6819   8.0010   8.0015   8.8829   8.8831
     9.0525   9.0541   9.1646   9.1664   9.8435   9.8437  10.4948  10.4953
    10.6241  10.6245  11.1596  11.1599  11.4546  11.4550  12.0622  12.0623

          k =-0.2500 0.0000-0.2500 (  5393 PWs)   bands (ev):

   -33.7830 -33.7830 -33.7354 -33.7354 -33.7253 -33.7253 -33.7168 -33.7168
   -14.5948 -14.5945 -14.5709 -14.5643 -14.5609 -14.5542 -14.3882 -14.3878
   -10.5204 -10.5199 -10.4659 -10.4630 -10.4322 -10.4290 -10.2424 -10.2419
   -10.1808 -10.1790 -10.1739 -10.1733 -10.1104 -10.1099  -9.9498  -9.9497
     4.5128   4.5137   5.6780   5.6791   8.0050   8.0055   8.8811   8.8814
     9.0537   9.0553   9.1690   9.1708   9.8438   9.8440  10.5046  10.5051
    10.6327  10.6331  11.1601  11.1604  11.4540  11.4543  12.0570  12.0571

          k = 0.2500-0.2500 0.0000 (  5393 PWs)   bands (ev):

   -33.7831 -33.7831 -33.7344 -33.7344 -33.7267 -33.7267 -33.7164 -33.7164
   -14.5951 -14.5929 -14.5737 -14.5714 -14.5532 -14.5528 -14.3883 -14.3879
   -10.5133 -10.5119 -10.4885 -10.4867 -10.4139 -10.4132 -10.2369 -10.2349
   -10.1959 -10.1946 -10.1657 -10.1650 -10.1107 -10.1100  -9.9504  -9.9503
     4.4471   4.4476   5.8728   5.8730   7.8190   7.8192   8.8034   8.8035
     9.0279   9.0280   9.2859   9.2865   9.8547   9.8548  10.5011  10.5028
    10.5950  10.5963  11.3078  11.3081  11.3364  11.3367  12.0686  12.0687

          k =-0.2500-0.2500 0.0000 (  5393 PWs)   bands (ev):

   -33.7830 -33.7830 -33.7352 -33.7352 -33.7261 -33.7261 -33.7163 -33.7163
   -14.5948 -14.5930 -14.5712 -14.5703 -14.5560 -14.5546 -14.3880 -14.3875
   -10.5125 -10.5109 -10.4868 -10.4849 -10.4184 -10.4177 -10.2368 -10.2348
   -10.1997 -10.1983 -10.1610 -10.1602 -10.1089 -10.1081  -9.9513  -9.9512
     4.4425   4.4430   5.8719   5.8721   7.8205   7.8206   8.8049   8.8050
     9.0201   9.0203   9.2988   9.2994   9.8542   9.8542  10.5108  10.5124
    10.6008  10.6021  11.3103  11.3107  11.3381  11.3383  12.0625  12.0627

          k = 0.2500 0.0000 0.5000 (  5390 PWs)   bands (ev):

   -33.7614 -33.7614 -33.7520 -33.7520 -33.7284 -33.7284 -33.7187 -33.7187
   -14.5840 -14.5839 -14.5734 -14.5733 -14.4829 -14.4828 -14.4721 -14.4719
   -10.4991 -10.4990 -10.4445 -10.4445 -10.3278 -10.3277 -10.2854 -10.2853
   -10.2395 -10.2395 -10.2020 -10.2020 -10.0624 -10.0623 -10.0374 -10.0374
     5.1810   5.1816   5.2176   5.2181   8.5706   8.5707   8.6387   8.6389
     9.7919   9.7920   9.8264   9.8265  10.1831  10.1834  10.1888  10.1891
    10.5234  10.5234  10.5422  10.5423  11.4130  11.4132  11.4282  11.4284

          k =-0.5000-0.2500 0.0000 (  5390 PWs)   bands (ev):

   -33.7591 -33.7591 -33.7555 -33.7555 -33.7247 -33.7247 -33.7211 -33.7211
   -14.5826 -14.5821 -14.5761 -14.5755 -14.4829 -14.4822 -14.4717 -14.4711
   -10.4940 -10.4938 -10.4614 -10.4606 -10.3142 -10.3139 -10.2858 -10.2854
   -10.2269 -10.2263 -10.2157 -10.2153 -10.0531 -10.0528 -10.0486 -10.0485
     4.7350   4.7351   5.9482   5.9485   7.8305   7.8307   8.9889   8.9890
     9.7442   9.7448   9.8614   9.8617   9.9791   9.9799  10.3298  10.3300
    10.5602  10.5604  10.6511  10.6515  11.4251  11.4252  11.4482  11.4484

          k = 0.0000-0.5000 0.2500 (  5390 PWs)   bands (ev):

   -33.7622 -33.7622 -33.7505 -33.7505 -33.7298 -33.7298 -33.7180 -33.7180
   -14.5865 -14.5811 -14.5764 -14.5709 -14.4866 -14.4826 -14.4723 -14.4678
   -10.4904 -10.4868 -10.4674 -10.4630 -10.3177 -10.3167 -10.2850 -10.2831
   -10.2274 -10.2229 -10.2180 -10.2147 -10.0546 -10.0539 -10.0476 -10.0469
     4.8390   4.8403   5.7308   5.7320   7.8318   7.8318   9.3753   9.3758
     9.7588   9.7589   9.8245   9.8248   9.9693   9.9694  10.2800  10.2801
    10.3618  10.3619  10.6458  10.6458  11.4187  11.4192  11.4726  11.4734

          k = 0.2500-0.5000 0.0000 (  5390 PWs)   bands (ev):

   -33.7623 -33.7623 -33.7505 -33.7505 -33.7298 -33.7298 -33.7179 -33.7179
   -14.5869 -14.5806 -14.5773 -14.5706 -14.4863 -14.4826 -14.4720 -14.4679
   -10.4953 -10.4925 -10.4629 -10.4591 -10.3151 -10.3129 -10.2863 -10.2842
   -10.2292 -10.2243 -10.2175 -10.2139 -10.0544 -10.0539 -10.0474 -10.0472
     4.7347   4.7353   5.9481   5.9484   7.8306   7.8308   8.9888   8.9892
     9.7441   9.7448   9.8613   9.8617   9.9790   9.9799  10.3298  10.3299
    10.5603  10.5604  10.6510  10.6515  11.4239  11.4262  11.4473  11.4497

          k =-0.5000 0.0000 0.2500 (  5390 PWs)   bands (ev):

   -33.7591 -33.7591 -33.7555 -33.7555 -33.7247 -33.7247 -33.7211 -33.7211
   -14.5822 -14.5817 -14.5766 -14.5753 -14.4835 -14.4820 -14.4718 -14.4712
   -10.4894 -10.4878 -10.4664 -10.4640 -10.3196 -10.3144 -10.2849 -10.2834
   -10.2256 -10.2246 -10.2177 -10.2154 -10.0535 -10.0524 -10.0494 -10.0476
     4.8393   4.8401   5.7310   5.7319   7.8317   7.8319   9.3754   9.3755
     9.7576   9.7602   9.8241   9.8252   9.9684   9.9705  10.2800  10.2802
    10.3619  10.3619  10.6455  10.6462  11.4186  11.4188  11.4730  11.4731

          k =-0.5000 0.0000 0.5000 (  5440 PWs)   bands (ev):

   -33.7506 -33.7506 -33.7413 -33.7413 -33.7392 -33.7392 -33.7292 -33.7292
   -14.5430 -14.5430 -14.5357 -14.5357 -14.5254 -14.5254 -14.5173 -14.5173
   -10.4512 -10.4512 -10.4444 -10.4444 -10.3844 -10.3844 -10.3767 -10.3767
   -10.1345 -10.1345 -10.1251 -10.1251 -10.0973 -10.0973 -10.0879 -10.0879
     5.2709   5.2709   5.2971   5.2971   8.8067   8.8067   8.8068   8.8068
     9.8678   9.8678   9.8706   9.8706  10.5622  10.5622  10.5626  10.5626
    10.7424  10.7424  10.7427  10.7427  10.8051  10.8051  10.8060  10.8060

          k =-0.5000 0.5000 0.0000 (  5440 PWs)   bands (ev):

   -33.7507 -33.7507 -33.7414 -33.7414 -33.7390 -33.7390 -33.7292 -33.7292
   -14.5466 -14.5466 -14.5329 -14.5329 -14.5257 -14.5257 -14.5161 -14.5161
   -10.4740 -10.4740 -10.4105 -10.4105 -10.3970 -10.3970 -10.3754 -10.3754
   -10.1369 -10.1369 -10.1198 -10.1198 -10.0984 -10.0984 -10.0895 -10.0895
     4.8192   4.8192   5.9730   5.9730   8.7419   8.7419   8.8741   8.8741
     8.8769   8.8769  10.5352  10.5352  10.5702  10.5702  10.6246  10.6246
    10.6710  10.6710  10.7548  10.7548  10.8296  10.8296  10.8429  10.8429

          k =-0.2500-0.2500 0.2500 (  5395 PWs)   bands (ev):

   -33.7742 -33.7742 -33.7363 -33.7363 -33.7293 -33.7293 -33.7207 -33.7207
   -14.5751 -14.5733 -14.5687 -14.5641 -14.5588 -14.5534 -14.4208 -14.4201
   -10.5096 -10.5085 -10.4796 -10.4776 -10.4364 -10.4346 -10.2169 -10.2158
   -10.1827 -10.1814 -10.1617 -10.1602 -10.1434 -10.1424  -9.9488  -9.9488
     4.6569   4.6581   5.6525   5.6536   8.0349   8.0354   9.0055   9.0055
     9.2926   9.2933   9.5853   9.5857  10.0205  10.0208  10.4846  10.4852
    10.5696  10.5700  11.0795  11.0796  11.2804  11.2806  12.0539  12.0541

          k =-0.2500 0.2500-0.2500 (  5395 PWs)   bands (ev):

   -33.7743 -33.7743 -33.7357 -33.7357 -33.7293 -33.7293 -33.7211 -33.7211
   -14.5779 -14.5751 -14.5682 -14.5635 -14.5562 -14.5520 -14.4210 -14.4204
   -10.5121 -10.5112 -10.4799 -10.4782 -10.4325 -10.4308 -10.2164 -10.2153
   -10.1793 -10.1777 -10.1631 -10.1618 -10.1474 -10.1464  -9.9483  -9.9482
     4.6597   4.6610   5.6465   5.6475   8.0447   8.0451   9.0036   9.0037
     9.2943   9.2950   9.5761   9.5766  10.0213  10.0216  10.4825  10.4830
    10.5743  10.5747  11.0792  11.0793  11.2786  11.2787  12.0536  12.0539

          k = 0.2500-0.2500-0.2500 (  5395 PWs)   bands (ev):

   -33.7743 -33.7743 -33.7357 -33.7357 -33.7292 -33.7292 -33.7211 -33.7211
   -14.5778 -14.5750 -14.5680 -14.5637 -14.5560 -14.5521 -14.4211 -14.4206
   -10.5117 -10.5110 -10.4794 -10.4777 -10.4324 -10.4308 -10.2170 -10.2159
   -10.1793 -10.1780 -10.1635 -10.1620 -10.1474 -10.1464  -9.9482  -9.9482
     4.6634   4.6641   5.6506   5.6517   8.0378   8.0383   9.0046   9.0047
     9.2895   9.2908   9.5737   9.5747  10.0204  10.0206  10.4802  10.4808
    10.5664  10.5667  11.0802  11.0803  11.2786  11.2787  12.0560  12.0561

          k =-0.2500 0.2500 0.5000 (  5420 PWs)   bands (ev):

   -33.7576 -33.7576 -33.7474 -33.7474 -33.7322 -33.7322 -33.7231 -33.7231
   -14.5761 -14.5759 -14.5596 -14.5591 -14.5014 -14.5008 -14.4904 -14.4898
   -10.5222 -10.5219 -10.4553 -10.4548 -10.3978 -10.3968 -10.3461 -10.3458
   -10.1700 -10.1688 -10.1319 -10.1318 -10.0433 -10.0427 -10.0134 -10.0131
     5.0925   5.0928   5.2354   5.2357   8.2258   8.2259   9.2309   9.2342
     9.4543   9.4579  10.1529  10.1567  10.1938  10.1972  10.2315  10.2324
    10.6944  10.6946  11.2725  11.2727  11.4912  11.4943  11.5014  11.5043

          k =-0.5000-0.2500 0.2500 (  5420 PWs)   bands (ev):

   -33.7554 -33.7554 -33.7511 -33.7511 -33.7292 -33.7292 -33.7246 -33.7246
   -14.5719 -14.5710 -14.5664 -14.5644 -14.5008 -14.4986 -14.4906 -14.4895
   -10.5083 -10.5062 -10.4881 -10.4859 -10.3743 -10.3708 -10.3543 -10.3525
   -10.1554 -10.1541 -10.1496 -10.1482 -10.0287 -10.0280 -10.0263 -10.0248
     4.8245   4.8255   5.6077   5.6087   8.1610   8.1614   8.8064   8.8064
     9.7606   9.7612  10.1469  10.1472  10.1995  10.1999  10.4213  10.4219
    10.7679  10.7684  10.9604  10.9612  11.5479  11.5480  11.5654  11.5656

          k = 0.5000-0.2500-0.2500 (  5420 PWs)   bands (ev):

   -33.7554 -33.7554 -33.7511 -33.7511 -33.7292 -33.7292 -33.7246 -33.7246
   -14.5719 -14.5711 -14.5661 -14.5646 -14.5006 -14.4988 -14.4905 -14.4895
   -10.5080 -10.5065 -10.4878 -10.4862 -10.3743 -10.3710 -10.3540 -10.3526
   -10.1552 -10.1542 -10.1496 -10.1483 -10.0289 -10.0279 -10.0261 -10.0248
     4.8247   4.8253   5.6079   5.6086   8.1613   8.1613   8.8064   8.8064
     9.7606   9.7610  10.1467  10.1471  10.1997  10.2001  10.4211  10.4217
    10.7677  10.7683  10.9606  10.9608  11.5477  11.5478  11.5656  11.5656

          k =-0.2500-0.5000 0.2500 (  5420 PWs)   bands (ev):

   -33.7579 -33.7579 -33.7462 -33.7462 -33.7340 -33.7340 -33.7222 -33.7222
   -14.5759 -14.5700 -14.5662 -14.5600 -14.5039 -14.4999 -14.4909 -14.4863
   -10.5086 -10.5053 -10.4885 -10.4848 -10.3745 -10.3715 -10.3551 -10.3517
   -10.1573 -10.1521 -10.1508 -10.1474 -10.0302 -10.0296 -10.0242 -10.0240
     4.8258   4.8268   5.6109   5.6117   8.1560   8.1567   8.8046   8.8050
     9.7594   9.7596  10.1472  10.1476  10.1988  10.1995  10.4158  10.4164
    10.7693  10.7701  10.9621  10.9627  11.5493  11.5499  11.5652  11.5659

          k =-0.2500 0.5000-0.2500 (  5420 PWs)   bands (ev):

   -33.7579 -33.7579 -33.7463 -33.7463 -33.7340 -33.7340 -33.7221 -33.7221
   -14.5759 -14.5703 -14.5662 -14.5603 -14.5037 -14.4998 -14.4907 -14.4863
   -10.5092 -10.5059 -10.4891 -10.4854 -10.3739 -10.3709 -10.3549 -10.3515
   -10.1573 -10.1522 -10.1503 -10.1468 -10.0300 -10.0297 -10.0243 -10.0239
     4.8232   4.8242   5.6047   5.6056   8.1658   8.1665   8.8079   8.8082
     9.7620   9.7622  10.1465  10.1468  10.2001  10.2007  10.4264  10.4271
    10.7660  10.7667  10.9590  10.9596  11.5459  11.5464  11.5652  11.5658

          k =-0.5000 0.2500 0.5000 (  5452 PWs)   bands (ev):

   -33.7505 -33.7505 -33.7412 -33.7412 -33.7391 -33.7391 -33.7292 -33.7292
   -14.5489 -14.5487 -14.5420 -14.5413 -14.5296 -14.5289 -14.5214 -14.5212
   -10.4999 -10.4988 -10.4948 -10.4939 -10.4313 -10.4306 -10.4251 -10.4241
   -10.0729 -10.0719 -10.0648 -10.0639 -10.0402 -10.0393 -10.0322 -10.0313
     5.1071   5.1074   5.1324   5.1327   8.4909   8.4910   8.4923   8.4924
    10.0901  10.0918  10.0942  10.0946  10.8262  10.8264  10.8379  10.8381
    11.1184  11.1193  11.1257  11.1261  11.5073  11.5074  11.5150  11.5152

          k =-0.5000 0.5000 0.2500 (  5452 PWs)   bands (ev):

   -33.7506 -33.7506 -33.7413 -33.7413 -33.7390 -33.7390 -33.7291 -33.7291
   -14.5517 -14.5493 -14.5428 -14.5371 -14.5320 -14.5272 -14.5217 -14.5201
   -10.5138 -10.5107 -10.4813 -10.4784 -10.4342 -10.4320 -10.4260 -10.4225
   -10.0732 -10.0705 -10.0648 -10.0629 -10.0403 -10.0394 -10.0327 -10.0320
     4.8096   4.8104   5.5052   5.5059   8.5028   8.5029   8.5063   8.5063
     9.4773   9.4780  10.5688  10.5690  10.8315  10.8317  10.8488  10.8491
    11.0249  11.0251  11.2062  11.2075  11.5172  11.5175  11.5269  11.5271

     the Fermi energy is    10.3301 ev

!    total energy              =   -2240.91021177 Ry
     Harris-Foulkes estimate   =   -2240.91021188 Ry
     estimated scf accuracy    <       0.00000014 Ry

     total all-electron energy =    -90245.253614 Ry

     The total energy is the sum of the following terms:

     one-electron contribution =     -49.91281151 Ry
     hartree contribution      =      43.50579479 Ry
     xc contribution           =    -252.83453239 Ry
     ewald contribution        =    -233.60475294 Ry
     one-center paw contrib.   =   -1748.06032894 Ry
     smearing contrib. (-TS)   =      -0.00358078 Ry

     convergence has been achieved in   8 iterations

     Forces acting on atoms (cartesian axes, Ry/au):

     atom    1 type  1   force =     0.01602679   -0.01580723    0.00129399
     atom    2 type  1   force =     0.01805552    0.01829509    0.00114988
     atom    3 type  1   force =    -0.01710846   -0.01688870    0.00016313
     atom    4 type  1   force =    -0.01715652    0.01738630    0.00014003
     atom    5 type  2   force =     0.00018744   -0.00291947   -0.00285535
     atom    6 type  2   force =    -0.00000478   -0.00006600    0.00010832

     Total force =     0.048598     Total SCF correction =     0.000377

     Writing output data file 2390.save

mkdir fail: [122] Disk quota exceeded

 %%%%%%%%%%%%%%%%%%%%%%%%%%%%%%%%%%%%%%%%%%%%%%%%%%%%%%%%%%%%%%%%%%%%%%%%%%%%%%
     Error in routine create_directory (1):
     unable to create directory /home/shaharpit/tmp/2390.save/K00026

 %%%%%%%%%%%%%%%%%%%%%%%%%%%%%%%%%%%%%%%%%%%%%%%%%%%%%%%%%%%%%%%%%%%%%%%%%%%%%%
     Error in routine create_directory (1):
     unable to create directory /home/shaharpit/tmp/2390.save/K00026
 %%%%%%%%%%%%%%%%%%%%%%%%%%%%%%%%%%%%%%%%%%%%%%%%%%%%%%%%%%%%%%%%%%%%%%%%%%%%%%

     stopping ...

 %%%%%%%%%%%%%%%%%%%%%%%%%%%%%%%%%%%%%%%%%%%%%%%%%%%%%%%%%%%%%%%%%%%%%%%%%%%%%%
     Error in routine create_directory (1):
     unable to create directory /home/shaharpit/tmp/2390.save/K00026
 %%%%%%%%%%%%%%%%%%%%%%%%%%%%%%%%%%%%%%%%%%%%%%%%%%%%%%%%%%%%%%%%%%%%%%%%%%%%%%

     stopping ...

 %%%%%%%%%%%%%%%%%%%%%%%%%%%%%%%%%%%%%%%%%%%%%%%%%%%%%%%%%%%%%%%%%%%%%%%%%%%%%%
     Error in routine create_directory (1):
     unable to create directory /home/shaharpit/tmp/2390.save/K00026
 %%%%%%%%%%%%%%%%%%%%%%%%%%%%%%%%%%%%%%%%%%%%%%%%%%%%%%%%%%%%%%%%%%%%%%%%%%%%%%

     stopping ...
 %%%%%%%%%%%%%%%%%%%%%%%%%%%%%%%%%%%%%%%%%%%%%%%%%%%%%%%%%%%%%%%%%%%%%%%%%%%%%%

     stopping ...
forrtl: Disk quota exceeded
forrtl: Disk quota exceeded
application called MPI_Abort(MPI_COMM_WORLD, 1) - process 2
application called MPI_Abort(MPI_COMM_WORLD, 1) - process 3
Removing 2390 from /home/shaharpit/tmp
