
     Program PWSCF v.6.1 (svn rev. 13369) starts on 16Nov2022 at 10:51:54 

     This program is part of the open-source Quantum ESPRESSO suite
     for quantum simulation of materials; please cite
         "P. Giannozzi et al., J. Phys.:Condens. Matter 21 395502 (2009);
          URL http://www.quantum-espresso.org", 
     in publications or presentations arising from this work. More details at
     http://www.quantum-espresso.org/quote

     Parallel version (MPI), running on    32 processors
     R & G space division:  proc/nbgrp/npool/nimage =      32
     Reading input from ./fcc_25_1.1.in
Warning: card &IONS ignored
Warning: card 	ION_DYNAMICS='BFGS', ignored
Warning: card / ignored
Warning: card &CELL ignored
Warning: card / ignored

     Current dimensions of program PWSCF are:
     Max number of different atomic species (ntypx) = 10
     Max number of k-points (npk) =  40000
     Max angular momentum in pseudopotentials (lmaxx) =  3
               file Gd.rel-pbe-spdn-kjpaw_psl.1.0.0.UPF: wavefunction(s)  5P 5P renormalized
               file H.pbe-kjpaw_psl.0.1.UPF: wavefunction(s)  1S renormalized

     Subspace diagonalization in iterative solution of the eigenvalue problem:
     a serial algorithm will be used

 
     Parallelization info
     --------------------
     sticks:   dense  smooth     PW     G-vecs:    dense   smooth      PW
     Min          53      53     15                 1653     1653     255
     Max          54      54     16                 1656     1656     260
     Sum        1701    1701    489                52923    52923    8217
 


     bravais-lattice index     =            0
     lattice parameter (alat)  =      10.3447  a.u.
     unit-cell volume          =    1107.0280 (a.u.)^3
     number of atoms/cell      =            6
     number of atomic types    =            2
     number of electrons       =        46.00
     number of Kohn-Sham states=           56
     kinetic-energy cutoff     =      50.0000  Ry
     charge density cutoff     =     200.0000  Ry
     convergence threshold     =      1.0E-06
     mixing beta               =       0.7000
     number of iterations used =            8  plain     mixing
     Exchange-correlation      =  SLA  PW   PBX  PBC ( 1  4  3  4 0 0)
     Non magnetic calculation with spin-orbit


     celldm(1)=  10.344739  celldm(2)=   0.000000  celldm(3)=   0.000000
     celldm(4)=   0.000000  celldm(5)=   0.000000  celldm(6)=   0.000000

     crystal axes: (cart. coord. in units of alat)
               a(1) = (   1.000000   0.000000   0.000000 )  
               a(2) = (   0.000000   1.000000   0.000000 )  
               a(3) = (   0.000000   0.000000   1.000000 )  

     reciprocal axes: (cart. coord. in units 2 pi/alat)
               b(1) = (  1.000000  0.000000  0.000000 )  
               b(2) = (  0.000000  1.000000  0.000000 )  
               b(3) = (  0.000000  0.000000  1.000000 )  


     PseudoPot. # 1 for Gd read from file:
     /home/shaharpit/MeamGdH/dft/qe_potentials/Gd.rel-pbe-spdn-kjpaw_psl.1.0.0.UPF
     MD5 check sum: cf50ec46d1536b4a0251694df1946a53
     Pseudo is Projector augmented-wave + core cor, Zval = 11.0
     Generated using "atomic" code by A. Dal Corso  v.6.2.2
     Shape of augmentation charge: PSQ
     Using radial grid of 1263 points, 10 beta functions with: 
                l(1) =   0
                l(2) =   0
                l(3) =   1
                l(4) =   1
                l(5) =   1
                l(6) =   1
                l(7) =   2
                l(8) =   2
                l(9) =   2
               l(10) =   2
     Q(r) pseudized with 0 coefficients 


     PseudoPot. # 2 for  H read from file:
     /home/shaharpit/MeamGdH/dft/qe_potentials/H.pbe-kjpaw_psl.0.1.UPF
     MD5 check sum: fbb168fef676c0aaadbafd73f5b1efa8
     Pseudo is Projector augmented-wave, Zval =  1.0
     Generated using "atomic" code by A. Dal Corso  v.5.0.2 svn rev. 9415
     Shape of augmentation charge: PSQ
     Using radial grid of  929 points,  2 beta functions with: 
                l(1) =   0
                l(2) =   0
     Q(r) pseudized with 0 coefficients 


     atomic species   valence    mass     pseudopotential
        Gd            11.00   157.25000     Gd( 1.00)
        H              1.00     1.00794      H( 1.00)

     No symmetry found



   Cartesian axes

     site n.     atom                  positions (alat units)
         1           Gd  tau(   1) = (   0.0000000   0.0000000   0.0000000  )
         2           Gd  tau(   2) = (   0.0000000   0.5000000   0.5000000  )
         3           Gd  tau(   3) = (   0.5000000   0.0000000   0.5000000  )
         4           Gd  tau(   4) = (   0.5000000   0.5000000   0.0000000  )
         5           H   tau(   5) = (   0.2500000   0.7539000   0.7539000  )
         6           H   tau(   6) = (   0.2500000   0.7501000   0.2500000  )

     number of k points=    36  gaussian smearing, width (Ry)=  0.0100
                       cart. coord. in units 2pi/alat
        k(    1) = (   0.0000000   0.0000000   0.0000000), wk =   0.0156250
        k(    2) = (   0.0000000   0.0000000   0.2500000), wk =   0.0312500
        k(    3) = (   0.0000000   0.0000000  -0.5000000), wk =   0.0156250
        k(    4) = (   0.0000000   0.2500000   0.2500000), wk =   0.0312500
        k(    5) = (   0.0000000   0.2500000  -0.5000000), wk =   0.0312500
        k(    6) = (   0.0000000  -0.5000000  -0.5000000), wk =   0.0156250
        k(    7) = (   0.2500000   0.2500000   0.2500000), wk =   0.0312500
        k(    8) = (   0.2500000   0.2500000  -0.5000000), wk =   0.0312500
        k(    9) = (   0.2500000  -0.5000000  -0.5000000), wk =   0.0312500
        k(   10) = (  -0.5000000  -0.5000000  -0.5000000), wk =   0.0156250
        k(   11) = (   0.2500000   0.0000000   0.0000000), wk =   0.0312500
        k(   12) = (   0.0000000   0.2500000   0.0000000), wk =   0.0312500
        k(   13) = (  -0.5000000   0.0000000   0.0000000), wk =   0.0156250
        k(   14) = (   0.0000000  -0.5000000   0.0000000), wk =   0.0156250
        k(   15) = (   0.0000000  -0.2500000   0.2500000), wk =   0.0312500
        k(   16) = (   0.2500000   0.0000000  -0.2500000), wk =   0.0312500
        k(   17) = (  -0.2500000   0.0000000  -0.2500000), wk =   0.0312500
        k(   18) = (   0.2500000  -0.2500000   0.0000000), wk =   0.0312500
        k(   19) = (  -0.2500000  -0.2500000   0.0000000), wk =   0.0312500
        k(   20) = (   0.2500000   0.0000000   0.5000000), wk =   0.0312500
        k(   21) = (  -0.5000000  -0.2500000   0.0000000), wk =   0.0312500
        k(   22) = (   0.0000000  -0.5000000   0.2500000), wk =   0.0312500
        k(   23) = (   0.2500000  -0.5000000   0.0000000), wk =   0.0312500
        k(   24) = (  -0.5000000   0.0000000   0.2500000), wk =   0.0312500
        k(   25) = (  -0.5000000   0.0000000   0.5000000), wk =   0.0156250
        k(   26) = (  -0.5000000   0.5000000   0.0000000), wk =   0.0156250
        k(   27) = (  -0.2500000  -0.2500000   0.2500000), wk =   0.0312500
        k(   28) = (  -0.2500000   0.2500000  -0.2500000), wk =   0.0312500
        k(   29) = (   0.2500000  -0.2500000  -0.2500000), wk =   0.0312500
        k(   30) = (  -0.2500000   0.2500000   0.5000000), wk =   0.0312500
        k(   31) = (  -0.5000000  -0.2500000   0.2500000), wk =   0.0312500
        k(   32) = (   0.5000000  -0.2500000  -0.2500000), wk =   0.0312500
        k(   33) = (  -0.2500000  -0.5000000   0.2500000), wk =   0.0312500
        k(   34) = (  -0.2500000   0.5000000  -0.2500000), wk =   0.0312500
        k(   35) = (  -0.5000000   0.2500000   0.5000000), wk =   0.0312500
        k(   36) = (  -0.5000000   0.5000000   0.2500000), wk =   0.0312500

     Dense  grid:    52923 G-vectors     FFT dimensions: (  48,  48,  48)

     Estimated max dynamical RAM per process >      21.10MB

     Estimated total allocated dynamical RAM >     675.20MB

     Check: negative/imaginary core charge=   -0.000002    0.000000

     Initial potential from superposition of free atoms

     starting charge   45.92379, renormalised to   46.00000
     Starting wfc are  108 randomized atomic wfcs
     Checking if some PAW data can be deallocated... 

     total cpu time spent up to now is        5.0 secs

     per-process dynamical memory:    62.0 Mb

     Self-consistent Calculation

     iteration #  1     ecut=    50.00 Ry     beta=0.70
     Davidson diagonalization with overlap
     ethr =  1.00E-02,  avg # of iterations =  2.0

     Threshold (ethr) on eigenvalues was too large:
     Diagonalizing with lowered threshold

     Davidson diagonalization with overlap
     ethr =  5.08E-04,  avg # of iterations =  2.0

     total cpu time spent up to now is       12.7 secs

     total energy              =   -2240.79751099 Ry
     Harris-Foulkes estimate   =   -2240.96713397 Ry
     estimated scf accuracy    <       0.25066724 Ry

     iteration #  2     ecut=    50.00 Ry     beta=0.70
     Davidson diagonalization with overlap
     ethr =  5.45E-04,  avg # of iterations =  3.1

     total cpu time spent up to now is       17.7 secs

     total energy              =   -2240.83281587 Ry
     Harris-Foulkes estimate   =   -2240.92208042 Ry
     estimated scf accuracy    <       0.17333096 Ry

     iteration #  3     ecut=    50.00 Ry     beta=0.70
     Davidson diagonalization with overlap
     ethr =  3.77E-04,  avg # of iterations =  2.3

     total cpu time spent up to now is       22.1 secs

     total energy              =   -2240.87489199 Ry
     Harris-Foulkes estimate   =   -2240.88504791 Ry
     estimated scf accuracy    <       0.02682123 Ry

     iteration #  4     ecut=    50.00 Ry     beta=0.70
     Davidson diagonalization with overlap
     ethr =  5.83E-05,  avg # of iterations =  2.0

     total cpu time spent up to now is       26.0 secs

     total energy              =   -2240.87950655 Ry
     Harris-Foulkes estimate   =   -2240.87963868 Ry
     estimated scf accuracy    <       0.00041007 Ry

     iteration #  5     ecut=    50.00 Ry     beta=0.70
     Davidson diagonalization with overlap
     ethr =  8.91E-07,  avg # of iterations =  3.9

     total cpu time spent up to now is       31.7 secs

     total energy              =   -2240.87964984 Ry
     Harris-Foulkes estimate   =   -2240.87967373 Ry
     estimated scf accuracy    <       0.00006740 Ry

     iteration #  6     ecut=    50.00 Ry     beta=0.70
     Davidson diagonalization with overlap
     ethr =  1.47E-07,  avg # of iterations =  4.1

     total cpu time spent up to now is       36.9 secs

     total energy              =   -2240.87965357 Ry
     Harris-Foulkes estimate   =   -2240.87968604 Ry
     estimated scf accuracy    <       0.00009341 Ry

     iteration #  7     ecut=    50.00 Ry     beta=0.70
     Davidson diagonalization with overlap
     ethr =  1.47E-07,  avg # of iterations =  3.2

     total cpu time spent up to now is       41.5 secs

     total energy              =   -2240.87966956 Ry
     Harris-Foulkes estimate   =   -2240.87966987 Ry
     estimated scf accuracy    <       0.00000109 Ry

     iteration #  8     ecut=    50.00 Ry     beta=0.70
     Davidson diagonalization with overlap
     ethr =  2.37E-09,  avg # of iterations =  4.1

     total cpu time spent up to now is       46.8 secs

     End of self-consistent calculation

          k = 0.0000 0.0000 0.0000 (  6619 PWs)   bands (ev):

   -36.5937 -36.5937 -36.5647 -36.5647 -36.5583 -36.5583 -36.5503 -36.5503
   -17.3255 -17.3255 -17.3179 -17.3179 -17.3101 -17.3101 -17.1784 -17.1784
   -13.1428 -13.1428 -13.1209 -13.1209 -13.0914 -13.0914 -12.9559 -12.9559
   -12.9412 -12.9412 -12.9323 -12.9323 -12.7891 -12.7891 -12.7839 -12.7839
     2.0630   2.0630   3.9320   3.9320   5.8022   5.8022   6.5318   6.5318
     6.5365   6.5365   6.5387   6.5387   7.3920   7.3920   8.3108   8.3108
     8.9176   8.9176   9.3909   9.3909   9.3976   9.3976   9.5692   9.5692

          k = 0.0000 0.0000 0.2500 (  6595 PWs)   bands (ev):

   -36.5891 -36.5891 -36.5666 -36.5666 -36.5600 -36.5600 -36.5513 -36.5513
   -17.3233 -17.3230 -17.3141 -17.3130 -17.2973 -17.2959 -17.1992 -17.1989
   -13.1226 -13.1226 -13.0839 -13.0822 -13.0736 -13.0712 -12.9763 -12.9753
   -12.9523 -12.9523 -12.9195 -12.9194 -12.8403 -12.8401 -12.8069 -12.8069
     2.3818   2.3824   3.7519   3.7528   5.9702   5.9711   6.5191   6.5192
     6.9070   6.9071   6.9089   6.9097   7.6370   7.6370   8.1661   8.1663
     8.6936   8.6940   9.0680   9.0687   9.2864   9.2865   9.6259   9.6260

          k = 0.0000 0.0000-0.5000 (  6568 PWs)   bands (ev):

   -36.5814 -36.5814 -36.5725 -36.5725 -36.5611 -36.5611 -36.5519 -36.5519
   -17.3218 -17.3218 -17.3138 -17.3138 -17.2527 -17.2527 -17.2444 -17.2444
   -13.0836 -13.0836 -13.0767 -13.0767 -12.9939 -12.9939 -12.9866 -12.9866
   -12.9656 -12.9656 -12.9581 -12.9581 -12.8656 -12.8656 -12.8576 -12.8576
     3.1156   3.1156   3.1459   3.1459   6.3029   6.3029   6.3141   6.3141
     7.4596   7.4596   7.4605   7.4605   8.2008   8.2008   8.2012   8.2012
     8.3394   8.3394   8.3410   8.3410   9.4689   9.4690   9.4746   9.4747

          k = 0.0000 0.2500 0.2500 (  6624 PWs)   bands (ev):

   -36.5854 -36.5854 -36.5666 -36.5666 -36.5625 -36.5625 -36.5525 -36.5525
   -17.3184 -17.3173 -17.3022 -17.3001 -17.2995 -17.2967 -17.2169 -17.2166
   -13.1068 -13.1063 -13.0776 -13.0770 -13.0577 -13.0570 -12.9691 -12.9680
   -12.9336 -12.9335 -12.9301 -12.9299 -12.8932 -12.8931 -12.8153 -12.8152
     2.5815   2.5820   3.7805   3.7816   5.8210   5.8218   6.8581   6.8584
     7.0394   7.0401   7.2340   7.2341   7.7526   7.7526   8.2370   8.2373
     8.4144   8.4149   8.7950   8.7953   8.8845   8.8847   9.5962   9.5963

          k = 0.0000 0.2500-0.5000 (  6610 PWs)   bands (ev):

   -36.5794 -36.5794 -36.5706 -36.5706 -36.5631 -36.5631 -36.5538 -36.5538
   -17.3129 -17.3127 -17.3045 -17.3043 -17.2635 -17.2632 -17.2548 -17.2545
   -13.0953 -13.0951 -13.0619 -13.0619 -13.0104 -13.0082 -12.9825 -12.9820
   -12.9692 -12.9662 -12.9416 -12.9412 -12.8766 -12.8762 -12.8566 -12.8563
     3.1942   3.1947   3.2254   3.2261   6.3576   6.3579   6.4077   6.4087
     7.6641   7.6657   7.7207   7.7210   8.0058   8.0063   8.0116   8.0118
     8.2906   8.2908   8.2935   8.2936   9.1153   9.1154   9.1303   9.1306

          k = 0.0000-0.5000-0.5000 (  6632 PWs)   bands (ev):

   -36.5768 -36.5768 -36.5680 -36.5680 -36.5657 -36.5657 -36.5564 -36.5564
   -17.2942 -17.2942 -17.2868 -17.2868 -17.2823 -17.2823 -17.2743 -17.2743
   -13.0692 -13.0692 -13.0687 -13.0687 -13.0302 -13.0302 -13.0299 -13.0299
   -12.9131 -12.9131 -12.9115 -12.9115 -12.8858 -12.8858 -12.8850 -12.8850
     3.2778   3.2778   3.3053   3.3053   6.4776   6.4776   6.4778   6.4778
     7.5774   7.5774   7.5795   7.5795   8.3171   8.3171   8.3177   8.3177
     8.5490   8.5490   8.5493   8.5493   8.6166   8.6166   8.6178   8.6178

          k = 0.2500 0.2500 0.2500 (  6595 PWs)   bands (ev):

   -36.5824 -36.5824 -36.5681 -36.5681 -36.5625 -36.5625 -36.5540 -36.5540
   -17.3087 -17.3078 -17.3026 -17.3004 -17.2967 -17.2935 -17.2316 -17.2312
   -13.1018 -13.1006 -13.0861 -13.0846 -13.0610 -13.0598 -12.9512 -12.9498
   -12.9394 -12.9379 -12.9231 -12.9219 -12.9106 -12.9098 -12.8156 -12.8156
     2.7032   2.7038   3.7635   3.7643   5.8479   5.8484   6.8961   6.8962
     7.1714   7.1722   7.4853   7.4860   7.8520   7.8522   8.2701   8.2706
     8.3624   8.3628   8.7023   8.7025   8.8428   8.8430   9.5938   9.5939

          k = 0.2500 0.2500-0.5000 (  6608 PWs)   bands (ev):

   -36.5781 -36.5781 -36.5695 -36.5695 -36.5643 -36.5643 -36.5549 -36.5549
   -17.3064 -17.3062 -17.2991 -17.2989 -17.2722 -17.2720 -17.2614 -17.2612
   -13.1070 -13.1069 -13.0718 -13.0713 -13.0474 -13.0465 -13.0119 -13.0118
   -12.9352 -12.9344 -12.9034 -12.9032 -12.8651 -12.8647 -12.8471 -12.8469
     3.1510   3.1513   3.2858   3.2859   6.0928   6.0930   7.0017   7.0073
     7.1039   7.1096   7.9443   7.9483   7.9692   7.9728   8.1017   8.1022
     8.3924   8.3927   8.8409   8.8410   9.1837   9.1854   9.1890   9.1906

          k = 0.2500-0.5000-0.5000 (  6572 PWs)   bands (ev):

   -36.5768 -36.5768 -36.5680 -36.5680 -36.5657 -36.5657 -36.5563 -36.5563
   -17.2956 -17.2955 -17.2880 -17.2880 -17.2834 -17.2833 -17.2753 -17.2753
   -13.0998 -13.0997 -13.0946 -13.0944 -13.0594 -13.0593 -13.0539 -13.0539
   -12.8849 -12.8848 -12.8783 -12.8782 -12.8597 -12.8597 -12.8536 -12.8536
     3.2096   3.2098   3.2364   3.2366   6.3659   6.3659   6.3671   6.3671
     7.6518   7.6522   7.6553   7.6557   8.3452   8.3452   8.3524   8.3524
     8.8794   8.8803   8.8869   8.8878   9.1445   9.1445   9.1504   9.1504

          k =-0.5000-0.5000-0.5000 (  6704 PWs)   bands (ev):

   -36.5768 -36.5768 -36.5680 -36.5680 -36.5657 -36.5657 -36.5563 -36.5563
   -17.2969 -17.2969 -17.2893 -17.2893 -17.2844 -17.2844 -17.2763 -17.2763
   -13.1218 -13.1218 -13.1160 -13.1160 -13.0801 -13.0801 -13.0740 -13.0740
   -12.8612 -12.8612 -12.8535 -12.8535 -12.8376 -12.8376 -12.8305 -12.8305
     3.1447   3.1447   3.1708   3.1708   6.2485   6.2485   6.2495   6.2495
     7.7802   7.7802   7.7847   7.7847   8.6097   8.6097   8.6103   8.6103
     9.2298   9.2299   9.2303   9.2303   9.3345   9.3345   9.3357   9.3357

          k = 0.2500 0.0000 0.0000 (  6595 PWs)   bands (ev):

   -36.5890 -36.5890 -36.5677 -36.5677 -36.5583 -36.5583 -36.5520 -36.5520
   -17.3207 -17.3199 -17.3178 -17.3177 -17.2958 -17.2948 -17.1992 -17.1989
   -13.1157 -13.1150 -13.1048 -13.1042 -13.0588 -13.0581 -12.9673 -12.9671
   -12.9616 -12.9609 -12.9185 -12.9183 -12.8371 -12.8368 -12.8107 -12.8106
     2.3153   2.3156   3.9883   3.9884   5.5808   5.5811   6.7219   6.7228
     6.9026   6.9029   6.9076   6.9089   7.6239   7.6239   8.3313   8.3315
     8.5004   8.5011   9.0903   9.0910   9.2942   9.2943   9.6304   9.6306

          k = 0.0000 0.2500 0.0000 (  6595 PWs)   bands (ev):

   -36.5892 -36.5892 -36.5657 -36.5657 -36.5611 -36.5611 -36.5510 -36.5510
   -17.3235 -17.3233 -17.3137 -17.3132 -17.2967 -17.2964 -17.1990 -17.1990
   -13.1159 -13.1159 -13.1040 -13.1039 -13.0585 -13.0583 -12.9683 -12.9679
   -12.9602 -12.9599 -12.9188 -12.9187 -12.8371 -12.8369 -12.8105 -12.8105
     2.3154   2.3155   3.9882   3.9884   5.5808   5.5811   6.7226   6.7227
     6.9026   6.9029   6.9079   6.9080   7.6239   7.6239   8.3312   8.3314
     8.5006   8.5011   9.0905   9.0909   9.2942   9.2943   9.6306   9.6308

          k =-0.5000 0.0000 0.0000 (  6568 PWs)   bands (ev):

   -36.5799 -36.5799 -36.5754 -36.5754 -36.5583 -36.5583 -36.5533 -36.5533
   -17.3187 -17.3187 -17.3176 -17.3176 -17.2507 -17.2507 -17.2458 -17.2458
   -13.0851 -13.0851 -13.0808 -13.0808 -12.9930 -12.9930 -12.9902 -12.9902
   -12.9599 -12.9599 -12.9474 -12.9474 -12.8670 -12.8670 -12.8644 -12.8644
     2.6311   2.6311   4.0482   4.0482   5.2517   5.2517   6.9432   6.9432
     7.4563   7.4563   7.4584   7.4584   8.1392   8.1392   8.2535   8.2535
     8.3063   8.3063   8.3364   8.3364   9.4456   9.4456   9.5347   9.5347

          k = 0.0000-0.5000 0.0000 (  6568 PWs)   bands (ev):

   -36.5820 -36.5820 -36.5707 -36.5707 -36.5629 -36.5629 -36.5514 -36.5514
   -17.3229 -17.3229 -17.3127 -17.3127 -17.2544 -17.2544 -17.2429 -17.2429
   -13.0879 -13.0879 -13.0778 -13.0778 -12.9958 -12.9958 -12.9865 -12.9865
   -12.9618 -12.9618 -12.9465 -12.9465 -12.8711 -12.8711 -12.8605 -12.8605
     2.6311   2.6311   4.0480   4.0480   5.2518   5.2518   6.9434   6.9434
     7.4564   7.4564   7.4583   7.4583   8.1392   8.1392   8.2535   8.2535
     8.3062   8.3062   8.3364   8.3364   9.4456   9.4456   9.5348   9.5348

          k = 0.0000-0.2500 0.2500 (  6624 PWs)   bands (ev):

   -36.5854 -36.5854 -36.5666 -36.5666 -36.5625 -36.5625 -36.5525 -36.5525
   -17.3183 -17.3174 -17.3022 -17.3000 -17.2995 -17.2967 -17.2169 -17.2165
   -13.1067 -13.1063 -13.0777 -13.0769 -13.0578 -13.0569 -12.9694 -12.9678
   -12.9334 -12.9333 -12.9301 -12.9300 -12.8933 -12.8932 -12.8152 -12.8152
     2.5813   2.5822   3.7806   3.7814   5.8216   5.8217   6.8578   6.8581
     7.0396   7.0400   7.2339   7.2341   7.7526   7.7527   8.2371   8.2371
     8.4147   8.4149   8.7952   8.7952   8.8846   8.8846   9.5962   9.5963

          k = 0.2500 0.0000-0.2500 (  6624 PWs)   bands (ev):

   -36.5853 -36.5853 -36.5681 -36.5681 -36.5606 -36.5606 -36.5531 -36.5531
   -17.3169 -17.3167 -17.3064 -17.3036 -17.2966 -17.2938 -17.2170 -17.2167
   -13.1068 -13.1061 -13.0784 -13.0762 -13.0584 -13.0559 -12.9691 -12.9687
   -12.9353 -12.9341 -12.9286 -12.9282 -12.8937 -12.8933 -12.8153 -12.8153
     2.5826   2.5832   3.7812   3.7821   5.8195   5.8199   6.8587   6.8589
     7.0385   7.0395   7.2322   7.2333   7.7527   7.7527   8.2339   8.2341
     8.4110   8.4113   8.7951   8.7954   8.8846   8.8850   9.5982   9.5983

          k =-0.2500 0.0000-0.2500 (  6624 PWs)   bands (ev):

   -36.5853 -36.5853 -36.5681 -36.5681 -36.5606 -36.5606 -36.5531 -36.5531
   -17.3170 -17.3167 -17.3064 -17.3037 -17.2966 -17.2939 -17.2169 -17.2166
   -13.1069 -13.1062 -13.0786 -13.0764 -13.0585 -13.0560 -12.9688 -12.9684
   -12.9354 -12.9341 -12.9286 -12.9282 -12.8936 -12.8933 -12.8152 -12.8151
     2.5803   2.5809   3.7800   3.7808   5.8231   5.8235   6.8573   6.8576
     7.0396   7.0406   7.2350   7.2361   7.7525   7.7526   8.2402   8.2404
     8.4182   8.4185   8.7949   8.7952   8.8843   8.8847   9.5939   9.5940

          k = 0.2500-0.2500 0.0000 (  6624 PWs)   bands (ev):

   -36.5854 -36.5854 -36.5675 -36.5675 -36.5612 -36.5612 -36.5529 -36.5529
   -17.3179 -17.3161 -17.3065 -17.3045 -17.2945 -17.2944 -17.2170 -17.2167
   -13.1035 -13.1015 -13.0923 -13.0900 -13.0471 -13.0466 -12.9639 -12.9621
   -12.9451 -12.9441 -12.9244 -12.9238 -12.8939 -12.8934 -12.8159 -12.8158
     2.5002   2.5005   4.0225   4.0225   5.6292   5.6294   6.7108   6.7109
     7.0920   7.0922   7.2763   7.2767   7.8139   7.8139   8.2486   8.2493
     8.3674   8.3681   8.8208   8.8208   8.8791   8.8792   9.6037   9.6038

          k =-0.2500-0.2500 0.0000 (  6624 PWs)   bands (ev):

   -36.5853 -36.5853 -36.5677 -36.5677 -36.5611 -36.5611 -36.5528 -36.5528
   -17.3176 -17.3165 -17.3042 -17.3042 -17.2967 -17.2952 -17.2168 -17.2164
   -13.1025 -13.1004 -13.0903 -13.0880 -13.0515 -13.0510 -12.9637 -12.9618
   -12.9492 -12.9480 -12.9200 -12.9195 -12.8922 -12.8916 -12.8168 -12.8167
     2.4976   2.4979   4.0219   4.0220   5.6316   5.6317   6.7119   6.7120
     7.0845   7.0847   7.2860   7.2864   7.8133   7.8133   8.2562   8.2569
     8.3715   8.3722   8.8227   8.8227   8.8807   8.8808   9.5989   9.5989

          k = 0.2500 0.0000 0.5000 (  6610 PWs)   bands (ev):

   -36.5794 -36.5794 -36.5706 -36.5706 -36.5631 -36.5631 -36.5538 -36.5538
   -17.3129 -17.3128 -17.3044 -17.3043 -17.2634 -17.2633 -17.2547 -17.2546
   -13.0953 -13.0953 -13.0620 -13.0619 -13.0089 -13.0086 -12.9824 -12.9821
   -12.9677 -12.9677 -12.9421 -12.9420 -12.8763 -12.8762 -12.8563 -12.8563
     3.1942   3.1946   3.2256   3.2259   6.3576   6.3577   6.4083   6.4084
     7.6648   7.6648   7.7209   7.7209   8.0057   8.0060   8.0118   8.0120
     8.2907   8.2908   8.2936   8.2937   9.1147   9.1149   9.1307   9.1309

          k =-0.5000-0.2500 0.0000 (  6610 PWs)   bands (ev):

   -36.5785 -36.5785 -36.5730 -36.5730 -36.5608 -36.5608 -36.5547 -36.5547
   -17.3109 -17.3098 -17.3083 -17.3070 -17.2615 -17.2605 -17.2566 -17.2557
   -13.0911 -13.0910 -13.0756 -13.0755 -12.9965 -12.9958 -12.9846 -12.9838
   -12.9578 -12.9574 -12.9525 -12.9519 -12.8684 -12.8681 -12.8658 -12.8655
     2.7118   2.7119   4.0572   4.0574   5.5955   5.5957   6.7033   6.7033
     7.4836   7.4836   7.8286   7.8287   7.8750   7.8753   8.2128   8.2129
     8.3264   8.3264   8.3373   8.3375   9.1200   9.1201   9.1521   9.1523

          k = 0.0000-0.5000 0.2500 (  6610 PWs)   bands (ev):

   -36.5799 -36.5799 -36.5686 -36.5686 -36.5650 -36.5650 -36.5534 -36.5534
   -17.3147 -17.3125 -17.3045 -17.3022 -17.2658 -17.2637 -17.2547 -17.2524
   -13.0902 -13.0858 -13.0808 -13.0753 -12.9982 -12.9970 -12.9841 -12.9821
   -12.9595 -12.9556 -12.9539 -12.9510 -12.8699 -12.8695 -12.8643 -12.8639
     2.8189   2.8198   3.8094   3.8103   5.5961   5.5961   7.1340   7.1343
     7.4911   7.4912   7.7391   7.7393   7.8775   7.8778   8.1023   8.1023
     8.2332   8.2332   8.3316   8.3316   9.1139   9.1146   9.1702   9.1711

          k = 0.2500-0.5000 0.0000 (  6610 PWs)   bands (ev):

   -36.5799 -36.5799 -36.5687 -36.5687 -36.5650 -36.5650 -36.5534 -36.5534
   -17.3148 -17.3124 -17.3047 -17.3021 -17.2657 -17.2637 -17.2546 -17.2524
   -13.0929 -13.0896 -13.0775 -13.0732 -12.9973 -12.9949 -12.9843 -12.9823
   -12.9605 -12.9566 -12.9537 -12.9508 -12.8702 -12.8695 -12.8641 -12.8638
     2.7117   2.7120   4.0572   4.0573   5.5956   5.5957   6.7032   6.7036
     7.4835   7.4836   7.8283   7.8289   7.8749   7.8753   8.2127   8.2129
     8.3262   8.3267   8.3371   8.3376   9.1189   9.1210   9.1513   9.1534

          k =-0.5000 0.0000 0.2500 (  6610 PWs)   bands (ev):

   -36.5785 -36.5785 -36.5730 -36.5730 -36.5608 -36.5608 -36.5547 -36.5547
   -17.3108 -17.3096 -17.3086 -17.3069 -17.2618 -17.2604 -17.2566 -17.2557
   -13.0896 -13.0865 -13.0798 -13.0764 -13.0000 -12.9943 -12.9842 -12.9823
   -12.9575 -12.9567 -12.9550 -12.9515 -12.8688 -12.8670 -12.8669 -12.8647
     2.8191   2.8197   3.8095   3.8102   5.5960   5.5961   7.1340   7.1341
     7.4911   7.4913   7.7390   7.7393   7.8774   7.8780   8.1022   8.1024
     8.2333   8.2333   8.3314   8.3318   9.1140   9.1142   9.1706   9.1707

          k =-0.5000 0.0000 0.5000 (  6632 PWs)   bands (ev):

   -36.5768 -36.5768 -36.5680 -36.5680 -36.5657 -36.5657 -36.5564 -36.5564
   -17.2943 -17.2943 -17.2865 -17.2865 -17.2826 -17.2826 -17.2743 -17.2743
   -13.0732 -13.0732 -13.0646 -13.0646 -13.0340 -13.0340 -13.0256 -13.0256
   -12.9175 -12.9175 -12.9074 -12.9074 -12.8903 -12.8903 -12.8808 -12.8808
     3.2778   3.2778   3.3053   3.3053   6.4777   6.4777   6.4779   6.4779
     7.5772   7.5772   7.5796   7.5796   8.3171   8.3171   8.3177   8.3177
     8.5489   8.5489   8.5492   8.5492   8.6166   8.6166   8.6179   8.6179

          k =-0.5000 0.5000 0.0000 (  6632 PWs)   bands (ev):

   -36.5768 -36.5768 -36.5680 -36.5680 -36.5657 -36.5657 -36.5564 -36.5564
   -17.2948 -17.2948 -17.2865 -17.2865 -17.2823 -17.2823 -17.2740 -17.2740
   -13.0820 -13.0820 -13.0527 -13.0527 -13.0372 -13.0372 -13.0258 -13.0258
   -12.9168 -12.9168 -12.9064 -12.9064 -12.8902 -12.8902 -12.8823 -12.8823
     2.7962   2.7962   4.0663   4.0663   6.4432   6.4432   6.5125   6.5125
     6.5148   6.5148   8.3009   8.3009   8.3510   8.3510   8.3542   8.3542
     8.4276   8.4276   8.5580   8.5580   8.6452   8.6452   8.6564   8.6564

          k =-0.2500-0.2500 0.2500 (  6595 PWs)   bands (ev):

   -36.5824 -36.5824 -36.5681 -36.5681 -36.5625 -36.5625 -36.5540 -36.5540
   -17.3086 -17.3077 -17.3027 -17.3003 -17.2967 -17.2935 -17.2317 -17.2313
   -13.1018 -13.1004 -13.0860 -13.0843 -13.0610 -13.0596 -12.9513 -12.9498
   -12.9395 -12.9381 -12.9233 -12.9221 -12.9106 -12.9098 -12.8157 -12.8157
     2.7051   2.7060   3.7659   3.7667   5.8424   5.8426   6.8966   6.8967
     7.1686   7.1691   7.4842   7.4845   7.8514   7.8516   8.2693   8.2699
     8.3561   8.3565   8.7036   8.7037   8.8430   8.8431   9.5954   9.5956

          k =-0.2500 0.2500-0.2500 (  6595 PWs)   bands (ev):

   -36.5825 -36.5825 -36.5679 -36.5679 -36.5625 -36.5625 -36.5541 -36.5541
   -17.3101 -17.3083 -17.3027 -17.3003 -17.2949 -17.2928 -17.2319 -17.2315
   -13.1048 -13.1039 -13.0855 -13.0841 -13.0572 -13.0558 -12.9505 -12.9489
   -12.9365 -12.9347 -12.9252 -12.9242 -12.9144 -12.9136 -12.8149 -12.8148
     2.7066   2.7075   3.7620   3.7627   5.8496   5.8498   6.8955   6.8955
     7.1695   7.1700   7.4772   7.4776   7.8522   7.8524   8.2669   8.2675
     8.3605   8.3609   8.7031   8.7032   8.8415   8.8416   9.5952   9.5954

          k = 0.2500-0.2500-0.2500 (  6595 PWs)   bands (ev):

   -36.5825 -36.5825 -36.5679 -36.5679 -36.5625 -36.5625 -36.5541 -36.5541
   -17.3101 -17.3083 -17.3027 -17.3003 -17.2949 -17.2928 -17.2319 -17.2316
   -13.1047 -13.1038 -13.0852 -13.0839 -13.0571 -13.0559 -12.9507 -12.9491
   -12.9366 -12.9347 -12.9252 -12.9241 -12.9145 -12.9137 -12.8150 -12.8149
     2.7088   2.7093   3.7644   3.7652   5.8436   5.8440   6.8960   6.8960
     7.1666   7.1674   7.4758   7.4765   7.8516   7.8518   8.2658   8.2663
     8.3542   8.3546   8.7043   8.7044   8.8416   8.8418   9.5970   9.5972

          k =-0.2500 0.2500 0.5000 (  6608 PWs)   bands (ev):

   -36.5783 -36.5783 -36.5693 -36.5693 -36.5642 -36.5642 -36.5551 -36.5551
   -17.3080 -17.3078 -17.2974 -17.2972 -17.2707 -17.2704 -17.2631 -17.2628
   -13.1100 -13.1100 -13.0684 -13.0677 -13.0451 -13.0439 -13.0143 -13.0142
   -12.9321 -12.9311 -12.9066 -12.9065 -12.8690 -12.8686 -12.8437 -12.8435
     3.1797   3.1799   3.2589   3.2591   6.0955   6.0957   6.9967   7.0021
     7.1025   7.1080   7.9416   7.9461   7.9654   7.9695   8.0988   8.0992
     8.3904   8.3907   8.8398   8.8399   9.1848   9.1862   9.1928   9.1943

          k =-0.5000-0.2500 0.2500 (  6608 PWs)   bands (ev):

   -36.5776 -36.5776 -36.5712 -36.5712 -36.5625 -36.5625 -36.5555 -36.5555
   -17.3053 -17.3038 -17.3029 -17.3007 -17.2694 -17.2675 -17.2645 -17.2633
   -13.1014 -13.0984 -13.0919 -13.0892 -13.0289 -13.0254 -13.0200 -13.0181
   -12.9232 -12.9218 -12.9196 -12.9180 -12.8563 -12.8557 -12.8538 -12.8528
     2.8458   2.8465   3.7410   3.7417   5.9030   5.9033   6.6437   6.6438
     7.5111   7.5114   7.8458   7.8460   8.0118   8.0118   8.2195   8.2198
     8.4600   8.4605   8.6001   8.6007   9.2178   9.2180   9.2360   9.2364

          k = 0.5000-0.2500-0.2500 (  6608 PWs)   bands (ev):

   -36.5776 -36.5776 -36.5712 -36.5712 -36.5625 -36.5625 -36.5555 -36.5555
   -17.3053 -17.3039 -17.3028 -17.3008 -17.2693 -17.2676 -17.2645 -17.2633
   -13.1015 -13.0985 -13.0918 -13.0891 -13.0291 -13.0254 -13.0200 -13.0180
   -12.9232 -12.9217 -12.9197 -12.9179 -12.8565 -12.8557 -12.8537 -12.8528
     2.8459   2.8464   3.7411   3.7417   5.9032   5.9032   6.6437   6.6437
     7.5110   7.5113   7.8457   7.8458   8.0119   8.0120   8.2195   8.2196
     8.4599   8.4603   8.6003   8.6003   9.2177   9.2177   9.2363   9.2364

          k =-0.2500-0.5000 0.2500 (  6608 PWs)   bands (ev):

   -36.5785 -36.5785 -36.5674 -36.5674 -36.5663 -36.5663 -36.5547 -36.5547
   -17.3087 -17.3064 -17.2986 -17.2962 -17.2733 -17.2714 -17.2625 -17.2603
   -13.1018 -13.0980 -13.0925 -13.0880 -13.0292 -13.0260 -13.0205 -13.0171
   -12.9247 -12.9219 -12.9187 -12.9172 -12.8577 -12.8573 -12.8522 -12.8520
     2.8465   2.8473   3.7431   3.7438   5.8989   5.8993   6.6420   6.6422
     7.5111   7.5114   7.8463   7.8467   8.0107   8.0110   8.2161   8.2164
     8.4613   8.4616   8.6013   8.6018   9.2189   9.2199   9.2353   9.2365

          k =-0.2500 0.5000-0.2500 (  6608 PWs)   bands (ev):

   -36.5785 -36.5785 -36.5674 -36.5674 -36.5663 -36.5663 -36.5547 -36.5547
   -17.3087 -17.3065 -17.2986 -17.2963 -17.2732 -17.2714 -17.2624 -17.2603
   -13.1020 -13.0982 -13.0927 -13.0882 -13.0290 -13.0258 -13.0205 -13.0171
   -12.9247 -12.9218 -12.9186 -12.9170 -12.8576 -12.8573 -12.8521 -12.8518
     2.8450   2.8458   3.7389   3.7396   5.9071   5.9074   6.6453   6.6455
     7.5109   7.5112   7.8451   7.8454   8.0128   8.0131   8.2227   8.2230
     8.4587   8.4589   8.5991   8.5996   9.2157   9.2165   9.2362   9.2372

          k =-0.5000 0.2500 0.5000 (  6572 PWs)   bands (ev):

   -36.5768 -36.5768 -36.5680 -36.5680 -36.5657 -36.5657 -36.5563 -36.5563
   -17.2956 -17.2956 -17.2880 -17.2878 -17.2835 -17.2834 -17.2753 -17.2753
   -13.1007 -13.1003 -13.0939 -13.0936 -13.0601 -13.0598 -13.0534 -13.0529
   -12.8861 -12.8855 -12.8776 -12.8771 -12.8609 -12.8604 -12.8530 -12.8526
     3.2096   3.2098   3.2364   3.2365   6.3659   6.3660   6.3671   6.3672
     7.6520   7.6530   7.6548   7.6551   8.3452   8.3453   8.3524   8.3525
     8.8806   8.8813   8.8858   8.8863   9.1445   9.1445   9.1503   9.1505

          k =-0.5000 0.5000 0.2500 (  6572 PWs)   bands (ev):

   -36.5768 -36.5768 -36.5680 -36.5680 -36.5657 -36.5657 -36.5563 -36.5563
   -17.2961 -17.2954 -17.2889 -17.2861 -17.2850 -17.2824 -17.2754 -17.2749
   -13.1068 -13.1029 -13.0910 -13.0869 -13.0613 -13.0594 -13.0546 -13.0521
   -12.8859 -12.8845 -12.8778 -12.8770 -12.8607 -12.8603 -12.8535 -12.8532
     2.8728   2.8734   3.6815   3.6821   6.3759   6.3759   6.3793   6.3793
     6.9852   6.9857   8.1521   8.1523   8.3531   8.3531   8.3596   8.3597
     8.7874   8.7877   8.9629   8.9640   9.1567   9.1568   9.1596   9.1598

     the Fermi energy is     8.1299 ev

!    total energy              =   -2240.87966980 Ry
     Harris-Foulkes estimate   =   -2240.87966996 Ry
     estimated scf accuracy    <       0.00000020 Ry

     total all-electron energy =    -90245.223073 Ry

     The total energy is the sum of the following terms:

     one-electron contribution =     -71.90795349 Ry
     hartree contribution      =      49.80195483 Ry
     xc contribution           =    -252.23252238 Ry
     ewald contribution        =    -218.48970353 Ry
     one-center paw contrib.   =   -1748.04687640 Ry
     smearing contrib. (-TS)   =      -0.00456883 Ry

     convergence has been achieved in   8 iterations

     Writing output data file 2318.save
 
     init_run     :      2.55s CPU      3.40s WALL (       1 calls)
     electrons    :     39.95s CPU     42.30s WALL (       1 calls)

     Called by init_run:
     wfcinit      :      2.27s CPU      2.68s WALL (       1 calls)
     potinit      :      0.12s CPU      0.22s WALL (       1 calls)

     Called by electrons:
     c_bands      :     33.16s CPU     34.61s WALL (       9 calls)
     sum_band     :      5.28s CPU      5.60s WALL (       9 calls)
     v_of_rho     :      0.03s CPU      0.04s WALL (       9 calls)
     newd         :      0.65s CPU      0.71s WALL (       9 calls)
     PAW_pot      :      0.93s CPU      1.00s WALL (       9 calls)
     mix_rho      :      0.05s CPU      0.06s WALL (       9 calls)

     Called by c_bands:
     init_us_2    :      0.28s CPU      0.30s WALL (     684 calls)
     cegterg      :     30.71s CPU     32.10s WALL (     324 calls)

     Called by sum_band:
     sum_band:bec :      1.54s CPU      1.56s WALL (     324 calls)
     addusdens    :      0.23s CPU      0.26s WALL (       9 calls)

     Called by *egterg:
     h_psi        :     18.47s CPU     19.73s WALL (    1320 calls)
     s_psi        :      1.80s CPU      1.82s WALL (    1320 calls)
     g_psi        :      0.05s CPU      0.05s WALL (     960 calls)
     cdiaghg      :      6.90s CPU      7.20s WALL (    1248 calls)

     Called by h_psi:
     h_psi:pot    :     18.10s CPU     19.34s WALL (    1320 calls)
     h_psi:calbec :      1.44s CPU      1.64s WALL (    1320 calls)
     vloc_psi     :     14.66s CPU     15.69s WALL (    1320 calls)
     add_vuspsi   :      1.98s CPU      2.00s WALL (    1320 calls)

     General routines
     calbec       :      1.84s CPU      2.09s WALL (    1644 calls)
     fft          :      0.03s CPU      0.19s WALL (     173 calls)
     fftw         :     15.51s CPU     16.61s WALL (  232716 calls)
     davcio       :      0.00s CPU      0.01s WALL (      36 calls)
 
     Parallel routines
     fft_scatter  :     10.09s CPU     10.82s WALL (  232889 calls)
 
     PWSCF        :  0m43.50s CPU     2m19.07s WALL

 
   This run was terminated on:  10:54:13  16Nov2022            

=------------------------------------------------------------------------------=
   JOB DONE.
=------------------------------------------------------------------------------=
Removing 2318 from /home/shaharpit/tmp
