
     Program PWSCF v.6.1 (svn rev. 13369) starts on 16Nov2022 at 10:53:30 

     This program is part of the open-source Quantum ESPRESSO suite
     for quantum simulation of materials; please cite
         "P. Giannozzi et al., J. Phys.:Condens. Matter 21 395502 (2009);
          URL http://www.quantum-espresso.org", 
     in publications or presentations arising from this work. More details at
     http://www.quantum-espresso.org/quote

     Parallel version (MPI), running on    32 processors
     R & G space division:  proc/nbgrp/npool/nimage =      32
     Reading input from ./fcc_50_1.in
Warning: card &IONS ignored
Warning: card 	ION_DYNAMICS='BFGS', ignored
Warning: card / ignored
Warning: card &CELL ignored
Warning: card / ignored

     Current dimensions of program PWSCF are:
     Max number of different atomic species (ntypx) = 10
     Max number of k-points (npk) =  40000
     Max angular momentum in pseudopotentials (lmaxx) =  3
               file Gd.rel-pbe-spdn-kjpaw_psl.1.0.0.UPF: wavefunction(s)  5P 5P renormalized
               file H.pbe-kjpaw_psl.0.1.UPF: wavefunction(s)  1S renormalized

     Subspace diagonalization in iterative solution of the eigenvalue problem:
     a serial algorithm will be used

 
     Parallelization info
     --------------------
     sticks:   dense  smooth     PW     G-vecs:    dense   smooth      PW
     Min          49      49     14                 1495     1495     233
     Max          50      50     16                 1500     1500     236
     Sum        1597    1597    465                47937    47937    7497
 


     bravais-lattice index     =            0
     lattice parameter (alat)  =      10.0212  a.u.
     unit-cell volume          =    1006.3788 (a.u.)^3
     number of atoms/cell      =            8
     number of atomic types    =            2
     number of electrons       =        48.00
     number of Kohn-Sham states=           58
     kinetic-energy cutoff     =      50.0000  Ry
     charge density cutoff     =     200.0000  Ry
     convergence threshold     =      1.0E-06
     mixing beta               =       0.7000
     number of iterations used =            8  plain     mixing
     Exchange-correlation      =  SLA  PW   PBX  PBC ( 1  4  3  4 0 0)
     Non magnetic calculation with spin-orbit


     celldm(1)=  10.021218  celldm(2)=   0.000000  celldm(3)=   0.000000
     celldm(4)=   0.000000  celldm(5)=   0.000000  celldm(6)=   0.000000

     crystal axes: (cart. coord. in units of alat)
               a(1) = (   1.000000   0.000000   0.000000 )  
               a(2) = (   0.000000   1.000000   0.000000 )  
               a(3) = (   0.000000   0.000000   1.000000 )  

     reciprocal axes: (cart. coord. in units 2 pi/alat)
               b(1) = (  1.000000  0.000000  0.000000 )  
               b(2) = (  0.000000  1.000000  0.000000 )  
               b(3) = (  0.000000  0.000000  1.000000 )  


     PseudoPot. # 1 for Gd read from file:
     /home/shaharpit/MeamGdH/dft/qe_potentials/Gd.rel-pbe-spdn-kjpaw_psl.1.0.0.UPF
     MD5 check sum: cf50ec46d1536b4a0251694df1946a53
     Pseudo is Projector augmented-wave + core cor, Zval = 11.0
     Generated using "atomic" code by A. Dal Corso  v.6.2.2
     Shape of augmentation charge: PSQ
     Using radial grid of 1263 points, 10 beta functions with: 
                l(1) =   0
                l(2) =   0
                l(3) =   1
                l(4) =   1
                l(5) =   1
                l(6) =   1
                l(7) =   2
                l(8) =   2
                l(9) =   2
               l(10) =   2
     Q(r) pseudized with 0 coefficients 


     PseudoPot. # 2 for  H read from file:
     /home/shaharpit/MeamGdH/dft/qe_potentials/H.pbe-kjpaw_psl.0.1.UPF
     MD5 check sum: fbb168fef676c0aaadbafd73f5b1efa8
     Pseudo is Projector augmented-wave, Zval =  1.0
     Generated using "atomic" code by A. Dal Corso  v.5.0.2 svn rev. 9415
     Shape of augmentation charge: PSQ
     Using radial grid of  929 points,  2 beta functions with: 
                l(1) =   0
                l(2) =   0
     Q(r) pseudized with 0 coefficients 


     atomic species   valence    mass     pseudopotential
        Gd            11.00   157.25000     Gd( 1.00)
        H              1.00     1.00794      H( 1.00)

      2 Sym. Ops. (no inversion) found



   Cartesian axes

     site n.     atom                  positions (alat units)
         1           Gd  tau(   1) = (   0.0000000   0.0000000   0.0000000  )
         2           Gd  tau(   2) = (   0.0000000   0.5000000   0.5000000  )
         3           Gd  tau(   3) = (   0.5000000   0.0000000   0.5000000  )
         4           Gd  tau(   4) = (   0.5000000   0.5000000   0.0000000  )
         5           H   tau(   5) = (   0.2500000   0.7539000   0.7539000  )
         6           H   tau(   6) = (   0.2500000   0.7501000   0.2500000  )
         7           H   tau(   7) = (   0.2500000   0.2500000   0.2500000  )
         8           H   tau(   8) = (   0.2500000   0.2500000   0.7501000  )

     number of k points=    24  gaussian smearing, width (Ry)=  0.0100
                       cart. coord. in units 2pi/alat
        k(    1) = (   0.0000000   0.0000000   0.0000000), wk =   0.0156250
        k(    2) = (   0.0000000   0.0000000   0.2500000), wk =   0.0625000
        k(    3) = (   0.0000000   0.0000000  -0.5000000), wk =   0.0312500
        k(    4) = (   0.0000000   0.2500000   0.2500000), wk =   0.0312500
        k(    5) = (   0.0000000   0.2500000  -0.5000000), wk =   0.0625000
        k(    6) = (   0.0000000  -0.5000000  -0.5000000), wk =   0.0156250
        k(    7) = (   0.2500000   0.2500000   0.2500000), wk =   0.0312500
        k(    8) = (   0.2500000   0.2500000  -0.5000000), wk =   0.0625000
        k(    9) = (   0.2500000  -0.5000000  -0.5000000), wk =   0.0312500
        k(   10) = (  -0.5000000  -0.5000000  -0.5000000), wk =   0.0156250
        k(   11) = (   0.2500000   0.0000000   0.0000000), wk =   0.0312500
        k(   12) = (  -0.5000000   0.0000000   0.0000000), wk =   0.0156250
        k(   13) = (   0.0000000   0.2500000  -0.2500000), wk =   0.0312500
        k(   14) = (   0.2500000   0.0000000  -0.2500000), wk =   0.0625000
        k(   15) = (  -0.2500000   0.0000000  -0.2500000), wk =   0.0625000
        k(   16) = (   0.2500000   0.0000000   0.5000000), wk =   0.0625000
        k(   17) = (  -0.5000000  -0.2500000   0.0000000), wk =   0.0625000
        k(   18) = (  -0.5000000   0.0000000   0.5000000), wk =   0.0312500
        k(   19) = (  -0.2500000   0.2500000  -0.2500000), wk =   0.0625000
        k(   20) = (   0.2500000  -0.2500000  -0.2500000), wk =   0.0312500
        k(   21) = (  -0.2500000   0.2500000   0.5000000), wk =   0.0625000
        k(   22) = (  -0.5000000  -0.2500000   0.2500000), wk =   0.0312500
        k(   23) = (   0.5000000  -0.2500000  -0.2500000), wk =   0.0312500
        k(   24) = (  -0.5000000   0.2500000   0.5000000), wk =   0.0625000

     Dense  grid:    47937 G-vectors     FFT dimensions: (  45,  45,  45)

     Estimated max dynamical RAM per process >      15.97MB

     Estimated total allocated dynamical RAM >     511.03MB

     Check: negative/imaginary core charge=   -0.000002    0.000000

     Initial potential from superposition of free atoms

     starting charge   47.92377, renormalised to   48.00000
     Starting wfc are  112 randomized atomic wfcs
     Checking if some PAW data can be deallocated... 

     total cpu time spent up to now is        6.5 secs

     per-process dynamical memory:    57.2 Mb

     Self-consistent Calculation

     iteration #  1     ecut=    50.00 Ry     beta=0.70
     Davidson diagonalization with overlap
     ethr =  1.00E-02,  avg # of iterations =  2.0

     Threshold (ethr) on eigenvalues was too large:
     Diagonalizing with lowered threshold

     Davidson diagonalization with overlap
     ethr =  8.90E-04,  avg # of iterations =  1.1

     total cpu time spent up to now is       13.3 secs

     total energy              =   -2243.23055764 Ry
     Harris-Foulkes estimate   =   -2243.52353078 Ry
     estimated scf accuracy    <       0.43886527 Ry

     iteration #  2     ecut=    50.00 Ry     beta=0.70
     Davidson diagonalization with overlap
     ethr =  9.14E-04,  avg # of iterations =  3.0

     total cpu time spent up to now is       17.3 secs

     total energy              =   -2243.30207804 Ry
     Harris-Foulkes estimate   =   -2243.44054017 Ry
     estimated scf accuracy    <       0.25632202 Ry

     iteration #  3     ecut=    50.00 Ry     beta=0.70
     Davidson diagonalization with overlap
     ethr =  5.34E-04,  avg # of iterations =  2.3

     total cpu time spent up to now is       20.8 secs

     total energy              =   -2243.36680848 Ry
     Harris-Foulkes estimate   =   -2243.37307713 Ry
     estimated scf accuracy    <       0.01318694 Ry

     iteration #  4     ecut=    50.00 Ry     beta=0.70
     Davidson diagonalization with overlap
     ethr =  2.75E-05,  avg # of iterations =  2.2

     total cpu time spent up to now is       24.3 secs

     total energy              =   -2243.36991820 Ry
     Harris-Foulkes estimate   =   -2243.36991462 Ry
     estimated scf accuracy    <       0.00016384 Ry

     iteration #  5     ecut=    50.00 Ry     beta=0.70
     Davidson diagonalization with overlap
     ethr =  3.41E-07,  avg # of iterations =  4.3

     total cpu time spent up to now is       28.7 secs

     total energy              =   -2243.36995597 Ry
     Harris-Foulkes estimate   =   -2243.36998664 Ry
     estimated scf accuracy    <       0.00005933 Ry

     iteration #  6     ecut=    50.00 Ry     beta=0.70
     Davidson diagonalization with overlap
     ethr =  1.24E-07,  avg # of iterations =  3.7

     total cpu time spent up to now is       32.4 secs

     total energy              =   -2243.36997086 Ry
     Harris-Foulkes estimate   =   -2243.36998034 Ry
     estimated scf accuracy    <       0.00002388 Ry

     iteration #  7     ecut=    50.00 Ry     beta=0.70
     Davidson diagonalization with overlap
     ethr =  4.97E-08,  avg # of iterations =  3.0

     total cpu time spent up to now is       35.9 secs

     End of self-consistent calculation

          k = 0.0000 0.0000 0.0000 (  6031 PWs)   bands (ev):

   -35.1031 -35.1031 -35.0535 -35.0535 -35.0470 -35.0470 -35.0391 -35.0391
   -15.8776 -15.8776 -15.8726 -15.8726 -15.8650 -15.8650 -15.6637 -15.6637
   -11.7645 -11.7645 -11.7642 -11.7642 -11.7386 -11.7386 -11.5073 -11.5073
   -11.4782 -11.4782 -11.4778 -11.4778 -11.2884 -11.2884 -11.2497 -11.2497
     2.3901   2.3901   4.7097   4.7097   4.7109   4.7109   5.0942   5.0942
     7.4377   7.4377   7.4378   7.4378   7.4431   7.4431   8.9649   8.9649
     9.9497   9.9497   9.9505   9.9505  10.5003  10.5003  10.5138  10.5138
    10.6790  10.6790

          k = 0.0000 0.0000 0.2500 (  6023 PWs)   bands (ev):

   -35.0953 -35.0953 -35.0571 -35.0571 -35.0501 -35.0501 -35.0403 -35.0403
   -15.8760 -15.8753 -15.8676 -15.8664 -15.8417 -15.8413 -15.6947 -15.6947
   -11.7406 -11.7403 -11.7154 -11.7150 -11.6992 -11.6990 -11.5389 -11.5385
   -11.5111 -11.5109 -11.4465 -11.4464 -11.3605 -11.3603 -11.2880 -11.2879
     2.7690   2.7692   4.4644   4.4645   4.8315   4.8326   5.1194   5.1204
     7.6235   7.6236   7.8503   7.8507   7.8542   7.8543   8.6544   8.6545
     9.6535   9.6537   9.8019   9.8024   9.9072   9.9073  10.7743  10.7743
    10.9176  10.9190

          k = 0.0000 0.0000-0.5000 (  5942 PWs)   bands (ev):

   -35.0804 -35.0804 -35.0705 -35.0705 -35.0511 -35.0511 -35.0408 -35.0408
   -15.8748 -15.8748 -15.8661 -15.8661 -15.7735 -15.7735 -15.7644 -15.7644
   -11.6950 -11.6950 -11.6878 -11.6878 -11.5789 -11.5789 -11.5729 -11.5729
   -11.5316 -11.5316 -11.5256 -11.5256 -11.3732 -11.3732 -11.3642 -11.3642
     3.6654   3.6654   3.6817   3.6817   5.0428   5.0428   5.0582   5.0582
     8.0479   8.0479   8.0597   8.0597   8.4746   8.4746   8.4752   8.4752
     9.3581   9.3581   9.3593   9.3593  10.6289  10.6289  10.6339  10.6339
    11.3295  11.3311

          k = 0.0000 0.2500 0.2500 (  6016 PWs)   bands (ev):

   -35.0887 -35.0887 -35.0574 -35.0574 -35.0540 -35.0539 -35.0427 -35.0427
   -15.8682 -15.8677 -15.8506 -15.8485 -15.8432 -15.8415 -15.7216 -15.7215
   -11.7076 -11.7066 -11.7041 -11.7028 -11.6888 -11.6885 -11.5373 -11.5373
   -11.4713 -11.4708 -11.4698 -11.4694 -11.4354 -11.4353 -11.3035 -11.3035
     3.0910   3.0910   4.5423   4.5427   4.6201   4.6220   5.0387   5.0387
     8.0299   8.0308   8.0314   8.0316   8.2122   8.2124   8.5449   8.5450
     9.5599   9.5602   9.5990   9.5999   9.6165   9.6171  10.7482  10.7482
    11.0587  11.0587

          k = 0.0000 0.2500-0.5000 (  6018 PWs)   bands (ev):

   -35.0767 -35.0767 -35.0667 -35.0667 -35.0548 -35.0548 -35.0444 -35.0444
   -15.8614 -15.8613 -15.8527 -15.8526 -15.7895 -15.7894 -15.7805 -15.7803
   -11.6959 -11.6956 -11.6925 -11.6922 -11.5867 -11.5846 -11.5824 -11.5802
   -11.5136 -11.5108 -11.5103 -11.5078 -11.3814 -11.3806 -11.3758 -11.3750
     3.8574   3.8580   3.8727   3.8733   4.8222   4.8228   4.8362   4.8368
     8.2723   8.2728   8.2809   8.2814   8.8156   8.8161   8.8164   8.8169
     9.1396   9.1398   9.1416   9.1418  10.2345  10.2347  10.2370  10.2372
    11.6634  11.6638

          k = 0.0000-0.5000-0.5000 (  6024 PWs)   bands (ev):

   -35.0706 -35.0706 -35.0608 -35.0608 -35.0608 -35.0608 -35.0503 -35.0503
   -15.8310 -15.8310 -15.8224 -15.8224 -15.8223 -15.8223 -15.8131 -15.8131
   -11.6570 -11.6570 -11.6556 -11.6556 -11.6556 -11.6556 -11.6542 -11.6542
   -11.4300 -11.4300 -11.4291 -11.4291 -11.4280 -11.4280 -11.4264 -11.4264
     4.3150   4.3150   4.3336   4.3336   4.3336   4.3336   4.3529   4.3529
     8.7411   8.7411   8.7424   8.7424   8.7426   8.7426   8.7437   8.7437
     9.6311   9.6311   9.6324   9.6324   9.6325   9.6325   9.6337   9.6337
    11.5316  11.5332

          k = 0.2500 0.2500 0.2500 (  6007 PWs)   bands (ev):

   -35.0833 -35.0833 -35.0598 -35.0598 -35.0539 -35.0539 -35.0456 -35.0456
   -15.8557 -15.8520 -15.8515 -15.8440 -15.8428 -15.8388 -15.7439 -15.7438
   -11.7175 -11.7167 -11.6988 -11.6975 -11.6928 -11.6918 -11.5116 -11.5115
   -11.4734 -11.4732 -11.4616 -11.4601 -11.4586 -11.4575 -11.3081 -11.3081
     3.2496   3.2498   4.5176   4.5197   4.5968   4.5996   5.0163   5.0164
     7.6591   7.6597   8.3881   8.3945   8.4015   8.4073   9.1782   9.1799
     9.4847   9.4861   9.5326   9.5348   9.5890   9.5914  10.7666  10.7666
    10.9801  10.9805

          k = 0.2500 0.2500-0.5000 (  6004 PWs)   bands (ev):

   -35.0742 -35.0742 -35.0643 -35.0643 -35.0572 -35.0572 -35.0468 -35.0468
   -15.8531 -15.8530 -15.8444 -15.8444 -15.8014 -15.8012 -15.7924 -15.7923
   -11.7128 -11.7126 -11.7093 -11.7091 -11.6300 -11.6294 -11.6258 -11.6252
   -11.4611 -11.4602 -11.4570 -11.4563 -11.3669 -11.3666 -11.3621 -11.3615
     3.8693   3.8700   3.8837   3.8843   4.7456   4.7462   4.7593   4.7599
     8.2479   8.2484   8.2539   8.2541   9.1322   9.1323   9.1333   9.1335
     9.4186   9.4189   9.4250   9.4254  10.2622  10.2626  10.2681  10.2686
    11.0760  11.0768

          k = 0.2500-0.5000-0.5000 (  6000 PWs)   bands (ev):

   -35.0705 -35.0705 -35.0608 -35.0608 -35.0608 -35.0608 -35.0503 -35.0503
   -15.8334 -15.8334 -15.8249 -15.8249 -15.8248 -15.8248 -15.8156 -15.8156
   -11.6965 -11.6965 -11.6956 -11.6953 -11.6915 -11.6913 -11.6903 -11.6902
   -11.3884 -11.3883 -11.3875 -11.3874 -11.3823 -11.3822 -11.3812 -11.3811
     4.2141   4.2143   4.2322   4.2322   4.2322   4.2323   4.2509   4.2510
     8.9231   8.9238   8.9265   8.9266   8.9266   8.9267   8.9292   8.9298
    10.0374  10.0386  10.0424  10.0425  10.0426  10.0427  10.0466  10.0478
    10.8778  10.8797

          k =-0.5000-0.5000-0.5000 (  6008 PWs)   bands (ev):

   -35.0705 -35.0705 -35.0608 -35.0608 -35.0608 -35.0608 -35.0502 -35.0502
   -15.8359 -15.8359 -15.8273 -15.8273 -15.8273 -15.8273 -15.8180 -15.8180
   -11.7260 -11.7260 -11.7250 -11.7250 -11.7201 -11.7201 -11.7191 -11.7191
   -11.3539 -11.3539 -11.3530 -11.3530 -11.3467 -11.3467 -11.3458 -11.3458
     4.1198   4.1198   4.1374   4.1374   4.1374   4.1374   4.1556   4.1556
     9.1357   9.1357   9.1397   9.1397   9.1397   9.1397   9.1435   9.1435
    10.4481  10.4482  10.4494  10.4495  10.4503  10.4504  10.4516  10.4517
    10.6406  10.6413

          k = 0.2500 0.0000 0.0000 (  6023 PWs)   bands (ev):

   -35.0953 -35.0953 -35.0588 -35.0588 -35.0470 -35.0470 -35.0417 -35.0417
   -15.8731 -15.8730 -15.8719 -15.8719 -15.8396 -15.8395 -15.6943 -15.6942
   -11.7441 -11.7438 -11.7437 -11.7437 -11.6755 -11.6753 -11.5064 -11.5063
   -11.5059 -11.5056 -11.4756 -11.4756 -11.3277 -11.3275 -11.3209 -11.3209
     2.6884   2.6886   4.7738   4.7739   4.7753   4.7754   5.1871   5.1871
     6.9507   6.9508   7.8466   7.8468   7.8471   7.8473   9.2922   9.2923
     9.6994   9.7003   9.7384   9.7385   9.7389   9.7389  10.7806  10.7809
    10.9245  10.9265

          k =-0.5000 0.0000 0.0000 (  5942 PWs)   bands (ev):

   -35.0784 -35.0784 -35.0741 -35.0741 -35.0470 -35.0470 -35.0432 -35.0432
   -15.8718 -15.8718 -15.8713 -15.8713 -15.7759 -15.7759 -15.7598 -15.7598
   -11.7170 -11.7170 -11.7168 -11.7168 -11.5451 -11.5451 -11.5403 -11.5403
   -11.5343 -11.5343 -11.4784 -11.4784 -11.4037 -11.4037 -11.3942 -11.3942
     3.0641   3.0641   4.8409   4.8409   4.8427   4.8427   5.2911   5.2911
     6.3527   6.3527   8.4520   8.4520   8.4528   8.4528   9.1495   9.1495
     9.5412   9.5412   9.5413   9.5413  10.2301  10.2301  10.7754  10.7754
    11.4063  11.4079

          k = 0.0000 0.2500-0.2500 (  6016 PWs)   bands (ev):

   -35.0887 -35.0887 -35.0574 -35.0574 -35.0540 -35.0539 -35.0427 -35.0427
   -15.8681 -15.8677 -15.8506 -15.8486 -15.8431 -15.8414 -15.7216 -15.7215
   -11.7077 -11.7066 -11.7041 -11.7027 -11.6888 -11.6885 -11.5376 -11.5371
   -11.4713 -11.4709 -11.4696 -11.4693 -11.4356 -11.4352 -11.3035 -11.3035
     3.0907   3.0913   4.5406   4.5411   4.6223   4.6229   5.0381   5.0396
     8.0263   8.0266   8.0353   8.0355   8.2122   8.2123   8.5449   8.5450
     9.5601   9.5602   9.5994   9.5998   9.6166   9.6167  10.7482  10.7482
    11.0575  11.0592

          k = 0.2500 0.0000-0.2500 (  6016 PWs)   bands (ev):

   -35.0886 -35.0886 -35.0593 -35.0593 -35.0514 -35.0514 -35.0434 -35.0434
   -15.8692 -15.8689 -15.8509 -15.8489 -15.8419 -15.8403 -15.7211 -15.7211
   -11.7327 -11.7324 -11.6961 -11.6959 -11.6768 -11.6766 -11.5114 -11.5111
   -11.4949 -11.4946 -11.4663 -11.4659 -11.4285 -11.4284 -11.3105 -11.3104
     3.0035   3.0039   4.4876   4.4879   4.8740   4.8750   5.1745   5.1755
     7.2840   7.2842   7.9656   7.9659   8.2391   8.2396   9.0991   9.0998
     9.5388   9.5398   9.5705   9.5727   9.6229   9.6254  10.7541  10.7544
    11.0598  11.0607

          k =-0.2500 0.0000-0.2500 (  6016 PWs)   bands (ev):

   -35.0886 -35.0886 -35.0593 -35.0593 -35.0514 -35.0514 -35.0434 -35.0434
   -15.8693 -15.8687 -15.8510 -15.8489 -15.8420 -15.8404 -15.7211 -15.7210
   -11.7326 -11.7323 -11.6965 -11.6962 -11.6771 -11.6770 -11.5112 -11.5108
   -11.4948 -11.4944 -11.4662 -11.4659 -11.4285 -11.4283 -11.3103 -11.3102
     3.0018   3.0021   4.4863   4.4864   4.8736   4.8745   5.1743   5.1752
     7.2857   7.2859   7.9630   7.9633   8.2436   8.2441   9.1086   9.1092
     9.5422   9.5427   9.5733   9.5763   9.6252   9.6281  10.7483  10.7486
    11.0573  11.0582

          k = 0.2500 0.0000 0.5000 (  6018 PWs)   bands (ev):

   -35.0767 -35.0767 -35.0668 -35.0668 -35.0548 -35.0548 -35.0444 -35.0444
   -15.8616 -15.8615 -15.8530 -15.8529 -15.7891 -15.7890 -15.7801 -15.7800
   -11.6986 -11.6983 -11.6953 -11.6950 -11.5828 -11.5825 -11.5781 -11.5778
   -11.5135 -11.5132 -11.5101 -11.5098 -11.3807 -11.3805 -11.3751 -11.3749
     3.7529   3.7532   3.7680   3.7682   5.0584   5.0587   5.0736   5.0739
     7.8470   7.8475   7.8540   7.8545   8.8316   8.8322   8.8359   8.8364
     9.4305   9.4308   9.4316   9.4318  10.1852  10.1854  10.1935  10.1938
    11.7180  11.7192

          k =-0.5000-0.2500 0.0000 (  6018 PWs)   bands (ev):

   -35.0750 -35.0750 -35.0703 -35.0703 -35.0510 -35.0510 -35.0463 -35.0463
   -15.8621 -15.8615 -15.8543 -15.8534 -15.7922 -15.7914 -15.7764 -15.7758
   -11.7235 -11.7234 -11.6926 -11.6923 -11.5911 -11.5909 -11.5426 -11.5425
   -11.5057 -11.5050 -11.4923 -11.4918 -11.3951 -11.3947 -11.3916 -11.3914
     3.2842   3.2845   4.5096   4.5097   4.9169   4.9176   5.2337   5.2345
     6.7335   6.7337   8.6885   8.6889   8.8327   8.8330   8.9055   8.9060
     9.2808   9.2809   9.5641   9.5644  10.1463  10.1464  10.1969  10.1970
    11.6676  11.6696

          k =-0.5000 0.0000 0.5000 (  6024 PWs)   bands (ev):

   -35.0706 -35.0706 -35.0609 -35.0609 -35.0608 -35.0608 -35.0502 -35.0502
   -15.8337 -15.8337 -15.8281 -15.8281 -15.8165 -15.8165 -15.8102 -15.8102
   -11.6776 -11.6776 -11.6769 -11.6769 -11.6356 -11.6356 -11.6343 -11.6343
   -11.4349 -11.4349 -11.4332 -11.4332 -11.4226 -11.4226 -11.4215 -11.4215
     3.8434   3.8434   3.8568   3.8568   5.0747   5.0747   5.0896   5.0896
     7.6864   7.6864   7.6870   7.6870   9.4959   9.4959   9.4967   9.4967
     9.5505   9.5505   9.5509   9.5509   9.6887   9.6887   9.6933   9.6933
    11.5785  11.5804

          k =-0.2500 0.2500-0.2500 (  6007 PWs)   bands (ev):

   -35.0833 -35.0833 -35.0598 -35.0598 -35.0539 -35.0539 -35.0456 -35.0456
   -15.8556 -15.8520 -15.8515 -15.8440 -15.8427 -15.8387 -15.7440 -15.7438
   -11.7173 -11.7170 -11.6987 -11.6974 -11.6924 -11.6913 -11.5119 -11.5118
   -11.4736 -11.4732 -11.4617 -11.4605 -11.4586 -11.4574 -11.3083 -11.3082
     3.2515   3.2521   4.5179   4.5185   4.6005   4.6011   5.0150   5.0164
     7.6581   7.6586   8.3872   8.3874   8.4027   8.4029   9.1731   9.1735
     9.4820   9.4823   9.5329   9.5329   9.5894   9.5895  10.7679  10.7686
    10.9816  10.9825

          k = 0.2500-0.2500-0.2500 (  6007 PWs)   bands (ev):

   -35.0833 -35.0833 -35.0598 -35.0598 -35.0539 -35.0539 -35.0456 -35.0456
   -15.8556 -15.8519 -15.8515 -15.8440 -15.8426 -15.8387 -15.7440 -15.7440
   -11.7173 -11.7170 -11.6983 -11.6971 -11.6920 -11.6912 -11.5122 -11.5121
   -11.4733 -11.4732 -11.4618 -11.4608 -11.4588 -11.4574 -11.3084 -11.3084
     3.2537   3.2539   4.5196   4.5220   4.5989   4.6021   5.0149   5.0149
     7.6570   7.6576   8.3822   8.3887   8.3960   8.4021   9.1665   9.1681
     9.4775   9.4795   9.5320   9.5332   9.5875   9.5896  10.7701  10.7701
    10.9838  10.9841

          k =-0.2500 0.2500 0.5000 (  6004 PWs)   bands (ev):

   -35.0742 -35.0742 -35.0643 -35.0643 -35.0572 -35.0572 -35.0468 -35.0468
   -15.8530 -15.8530 -15.8444 -15.8442 -15.8014 -15.8014 -15.7925 -15.7923
   -11.7125 -11.7122 -11.7090 -11.7088 -11.6301 -11.6295 -11.6260 -11.6254
   -11.4610 -11.4602 -11.4572 -11.4563 -11.3672 -11.3666 -11.3621 -11.3618
     3.8719   3.8725   3.8862   3.8870   4.7446   4.7453   4.7583   4.7590
     8.2449   8.2451   8.2507   8.2512   9.1306   9.1309   9.1319   9.1321
     9.4147   9.4151   9.4212   9.4215  10.2642  10.2647  10.2702  10.2706
    11.0768  11.0780

          k =-0.5000-0.2500 0.2500 (  6004 PWs)   bands (ev):

   -35.0729 -35.0729 -35.0676 -35.0676 -35.0539 -35.0539 -35.0481 -35.0481
   -15.8534 -15.8525 -15.8463 -15.8448 -15.8038 -15.8024 -15.7899 -15.7890
   -11.7288 -11.7287 -11.7054 -11.7054 -11.6397 -11.6397 -11.6026 -11.6026
   -11.4547 -11.4545 -11.4481 -11.4477 -11.3740 -11.3736 -11.3705 -11.3701
     3.4412   3.4417   4.4972   4.4978   4.5806   4.5812   4.9665   4.9676
     7.2931   7.2938   8.9611   8.9613   9.0259   9.0260   9.3447   9.3453
     9.3683   9.3692   9.3766   9.3770  10.2594  10.2604  10.2725  10.2737
    10.9704  10.9709

          k = 0.5000-0.2500-0.2500 (  6004 PWs)   bands (ev):

   -35.0729 -35.0729 -35.0676 -35.0676 -35.0539 -35.0539 -35.0481 -35.0481
   -15.8534 -15.8525 -15.8463 -15.8448 -15.8037 -15.8024 -15.7899 -15.7890
   -11.7290 -11.7285 -11.7055 -11.7053 -11.6397 -11.6397 -11.6027 -11.6026
   -11.4547 -11.4545 -11.4481 -11.4477 -11.3738 -11.3737 -11.3704 -11.3703
     3.4414   3.4414   4.4987   4.4992   4.5787   4.5804   4.9670   4.9670
     7.2936   7.2936   8.9605   8.9617   9.0252   9.0265   9.3455   9.3464
     9.3671   9.3690   9.3764   9.3764  10.2585  10.2586  10.2741  10.2743
    10.9710  10.9711

          k =-0.5000 0.2500 0.5000 (  6000 PWs)   bands (ev):

   -35.0706 -35.0706 -35.0608 -35.0608 -35.0608 -35.0608 -35.0502 -35.0502
   -15.8350 -15.8348 -15.8289 -15.8288 -15.8208 -15.8207 -15.8141 -15.8139
   -11.7081 -11.7077 -11.7050 -11.7044 -11.6834 -11.6826 -11.6794 -11.6791
   -11.3896 -11.3887 -11.3884 -11.3868 -11.3824 -11.3806 -11.3803 -11.3796
     3.8897   3.8905   3.9029   3.9036   4.6599   4.6607   4.6732   4.6741
     8.2916   8.2923   8.2933   8.2939   9.4258   9.4265   9.4276   9.4282
     9.9461   9.9470   9.9474   9.9482  10.1195  10.1202  10.1251  10.1257
    10.8934  10.8979

     the Fermi energy is     9.3051 ev

!    total energy              =   -2243.36997520 Ry
     Harris-Foulkes estimate   =   -2243.36997514 Ry
     estimated scf accuracy    <       0.00000012 Ry

     total all-electron energy =    -90247.713369 Ry

     The total energy is the sum of the following terms:

     one-electron contribution =     -57.49245489 Ry
     hartree contribution      =      46.18573550 Ry
     xc contribution           =    -254.07702507 Ry
     ewald contribution        =    -229.92053629 Ry
     one-center paw contrib.   =   -1748.06145328 Ry
     smearing contrib. (-TS)   =      -0.00424117 Ry

     convergence has been achieved in   7 iterations

     Writing output data file 2320.save
 
     init_run     :      1.91s CPU      3.88s WALL (       1 calls)
     electrons    :     27.09s CPU     29.70s WALL (       1 calls)

     Called by init_run:
     wfcinit      :      1.65s CPU      2.74s WALL (       1 calls)
     potinit      :      0.11s CPU      0.33s WALL (       1 calls)

     Called by electrons:
     c_bands      :     22.05s CPU     23.15s WALL (       8 calls)
     sum_band     :      3.68s CPU      3.94s WALL (       8 calls)
     v_of_rho     :      0.02s CPU      0.05s WALL (       8 calls)
     newd         :      0.56s CPU      0.65s WALL (       8 calls)
     PAW_pot      :      0.89s CPU      1.01s WALL (       8 calls)
     mix_rho      :      0.05s CPU      0.06s WALL (       8 calls)

     Called by c_bands:
     init_us_2    :      0.17s CPU      0.17s WALL (     408 calls)
     cegterg      :     20.71s CPU     21.71s WALL (     192 calls)

     Called by sum_band:
     sum_band:bec :      0.93s CPU      0.93s WALL (     192 calls)
     addusdens    :      0.19s CPU      0.27s WALL (       8 calls)

     Called by *egterg:
     h_psi        :     13.83s CPU     14.61s WALL (     732 calls)
     s_psi        :      1.20s CPU      1.21s WALL (     732 calls)
     g_psi        :      0.03s CPU      0.03s WALL (     516 calls)
     cdiaghg      :      3.96s CPU      4.48s WALL (     684 calls)

     Called by h_psi:
     h_psi:pot    :     13.64s CPU     14.40s WALL (     732 calls)
     h_psi:calbec :      0.84s CPU      0.99s WALL (     732 calls)
     vloc_psi     :     11.62s CPU     12.23s WALL (     732 calls)
     add_vuspsi   :      1.17s CPU      1.18s WALL (     732 calls)

     General routines
     calbec       :      1.07s CPU      1.25s WALL (     924 calls)
     fft          :      0.03s CPU      0.29s WALL (     154 calls)
     fftw         :     12.67s CPU     13.35s WALL (  143264 calls)
     davcio       :      0.00s CPU      0.00s WALL (      24 calls)
 
     Parallel routines
     fft_scatter  :      5.95s CPU      6.27s WALL (  143418 calls)
 
     PWSCF        :  0m29.80s CPU     1m19.17s WALL

 
   This run was terminated on:  10:54:49  16Nov2022            

=------------------------------------------------------------------------------=
   JOB DONE.
=------------------------------------------------------------------------------=
Removing 2320 from /home/shaharpit/tmp
