
     Program PWSCF v.6.1 (svn rev. 13369) starts on 30Nov2022 at 13:42:28 

     This program is part of the open-source Quantum ESPRESSO suite
     for quantum simulation of materials; please cite
         "P. Giannozzi et al., J. Phys.:Condens. Matter 21 395502 (2009);
          URL http://www.quantum-espresso.org", 
     in publications or presentations arising from this work. More details at
     http://www.quantum-espresso.org/quote

     Parallel version (MPI), running on     4 processors
     R & G space division:  proc/nbgrp/npool/nimage =       4
     Reading input from ./fcc_125_1.1.in
Warning: card &IONS ignored
Warning: card 	ION_DYNAMICS='BFGS', ignored
Warning: card / ignored
Warning: card &CELL ignored
Warning: card / ignored

     Current dimensions of program PWSCF are:
     Max number of different atomic species (ntypx) = 10
     Max number of k-points (npk) =  40000
     Max angular momentum in pseudopotentials (lmaxx) =  3
               file Gd.rel-pbe-spdn-kjpaw_psl.1.0.0.UPF: wavefunction(s)  5P 5P renormalized
               file H.pbe-kjpaw_psl.0.1.UPF: wavefunction(s)  1S renormalized

     Subspace diagonalization in iterative solution of the eigenvalue problem:
     a serial algorithm will be used

 
     Parallelization info
     --------------------
     sticks:   dense  smooth     PW     G-vecs:    dense   smooth      PW
     Min         425     425    122                13229    13229    2054
     Max         426     426    123                13232    13232    2055
     Sum        1701    1701    489                52923    52923    8217
 


     bravais-lattice index     =            0
     lattice parameter (alat)  =      10.3447  a.u.
     unit-cell volume          =    1107.0280 (a.u.)^3
     number of atoms/cell      =           14
     number of atomic types    =            2
     number of electrons       =        54.00
     number of Kohn-Sham states=           64
     kinetic-energy cutoff     =      50.0000  Ry
     charge density cutoff     =     200.0000  Ry
     convergence threshold     =      1.0E-06
     mixing beta               =       0.7000
     number of iterations used =            8  plain     mixing
     Exchange-correlation      =  SLA  PW   PBX  PBC ( 1  4  3  4 0 0)
     Non magnetic calculation with spin-orbit


     celldm(1)=  10.344739  celldm(2)=   0.000000  celldm(3)=   0.000000
     celldm(4)=   0.000000  celldm(5)=   0.000000  celldm(6)=   0.000000

     crystal axes: (cart. coord. in units of alat)
               a(1) = (   1.000000   0.000000   0.000000 )  
               a(2) = (   0.000000   1.000000   0.000000 )  
               a(3) = (   0.000000   0.000000   1.000000 )  

     reciprocal axes: (cart. coord. in units 2 pi/alat)
               b(1) = (  1.000000  0.000000  0.000000 )  
               b(2) = (  0.000000  1.000000  0.000000 )  
               b(3) = (  0.000000  0.000000  1.000000 )  


     PseudoPot. # 1 for Gd read from file:
     /home/shaharpit/MeamGdH/dft/qe_potentials/Gd.rel-pbe-spdn-kjpaw_psl.1.0.0.UPF
     MD5 check sum: cf50ec46d1536b4a0251694df1946a53
     Pseudo is Projector augmented-wave + core cor, Zval = 11.0
     Generated using "atomic" code by A. Dal Corso  v.6.2.2
     Shape of augmentation charge: PSQ
     Using radial grid of 1263 points, 10 beta functions with: 
                l(1) =   0
                l(2) =   0
                l(3) =   1
                l(4) =   1
                l(5) =   1
                l(6) =   1
                l(7) =   2
                l(8) =   2
                l(9) =   2
               l(10) =   2
     Q(r) pseudized with 0 coefficients 


     PseudoPot. # 2 for  H read from file:
     /home/shaharpit/MeamGdH/dft/qe_potentials/H.pbe-kjpaw_psl.0.1.UPF
     MD5 check sum: fbb168fef676c0aaadbafd73f5b1efa8
     Pseudo is Projector augmented-wave, Zval =  1.0
     Generated using "atomic" code by A. Dal Corso  v.5.0.2 svn rev. 9415
     Shape of augmentation charge: PSQ
     Using radial grid of  929 points,  2 beta functions with: 
                l(1) =   0
                l(2) =   0
     Q(r) pseudized with 0 coefficients 


     atomic species   valence    mass     pseudopotential
        Gd            11.00   157.25000     Gd( 1.00)
        H              1.00     1.00794      H( 1.00)

      2 Sym. Ops. (no inversion) found



   Cartesian axes

     site n.     atom                  positions (alat units)
         1           Gd  tau(   1) = (   0.0000000   0.0000000   0.0000000  )
         2           Gd  tau(   2) = (   0.0000000   0.5000000   0.5000000  )
         3           Gd  tau(   3) = (   0.5000000   0.0000000   0.5000000  )
         4           Gd  tau(   4) = (   0.5000000   0.5000000   0.0000000  )
         5           H   tau(   5) = (   0.2500000   0.7539000   0.7539000  )
         6           H   tau(   6) = (   0.2500000   0.7501000   0.2500000  )
         7           H   tau(   7) = (   0.2500000   0.2500000   0.2500000  )
         8           H   tau(   8) = (   0.2500000   0.2500000   0.7501000  )
         9           H   tau(   9) = (   0.7501000   0.2500000   0.7501000  )
        10           H   tau(  10) = (   0.7501000   0.2500000   0.2500000  )
        11           H   tau(  11) = (   0.7501000   0.7501000   0.2500000  )
        12           H   tau(  12) = (   0.7501000   0.7501000   0.7501000  )
        13           H   tau(  13) = (   0.5001000   0.5001000   0.5001000  )
        14           H   tau(  14) = (   0.5001000   0.0000000   0.0000000  )

     number of k points=    24  gaussian smearing, width (Ry)=  0.0100
                       cart. coord. in units 2pi/alat
        k(    1) = (   0.0000000   0.0000000   0.0000000), wk =   0.0156250
        k(    2) = (   0.0000000   0.0000000   0.2500000), wk =   0.0625000
        k(    3) = (   0.0000000   0.0000000  -0.5000000), wk =   0.0312500
        k(    4) = (   0.0000000   0.2500000   0.2500000), wk =   0.0312500
        k(    5) = (   0.0000000   0.2500000  -0.5000000), wk =   0.0625000
        k(    6) = (   0.0000000  -0.5000000  -0.5000000), wk =   0.0156250
        k(    7) = (   0.2500000   0.2500000   0.2500000), wk =   0.0312500
        k(    8) = (   0.2500000   0.2500000  -0.5000000), wk =   0.0625000
        k(    9) = (   0.2500000  -0.5000000  -0.5000000), wk =   0.0312500
        k(   10) = (  -0.5000000  -0.5000000  -0.5000000), wk =   0.0156250
        k(   11) = (   0.2500000   0.0000000   0.0000000), wk =   0.0312500
        k(   12) = (  -0.5000000   0.0000000   0.0000000), wk =   0.0156250
        k(   13) = (   0.0000000   0.2500000  -0.2500000), wk =   0.0312500
        k(   14) = (   0.2500000   0.0000000  -0.2500000), wk =   0.0625000
        k(   15) = (  -0.2500000   0.0000000  -0.2500000), wk =   0.0625000
        k(   16) = (   0.2500000   0.0000000   0.5000000), wk =   0.0625000
        k(   17) = (  -0.5000000  -0.2500000   0.0000000), wk =   0.0625000
        k(   18) = (  -0.5000000   0.0000000   0.5000000), wk =   0.0312500
        k(   19) = (  -0.2500000   0.2500000  -0.2500000), wk =   0.0625000
        k(   20) = (   0.2500000  -0.2500000  -0.2500000), wk =   0.0312500
        k(   21) = (  -0.2500000   0.2500000   0.5000000), wk =   0.0625000
        k(   22) = (  -0.5000000  -0.2500000   0.2500000), wk =   0.0312500
        k(   23) = (   0.5000000  -0.2500000  -0.2500000), wk =   0.0312500
        k(   24) = (  -0.5000000   0.2500000   0.5000000), wk =   0.0625000

     Dense  grid:    52923 G-vectors     FFT dimensions: (  48,  48,  48)

     Estimated max dynamical RAM per process >     135.39MB

     Estimated total allocated dynamical RAM >     541.56MB

     Check: negative/imaginary core charge=   -0.000002    0.000000

     Initial potential from superposition of free atoms

     starting charge   53.92372, renormalised to   54.00000
     Starting wfc are  124 randomized atomic wfcs
     Checking if some PAW data can be deallocated... 

     total cpu time spent up to now is        8.2 secs

     per-process dynamical memory:   160.2 Mb

     Self-consistent Calculation

     iteration #  1     ecut=    50.00 Ry     beta=0.70
     Davidson diagonalization with overlap
     ethr =  1.00E-02,  avg # of iterations =  2.3

     total cpu time spent up to now is       18.6 secs

     total energy              =   -2250.60620346 Ry
     Harris-Foulkes estimate   =   -2250.97181123 Ry
     estimated scf accuracy    <       0.63657366 Ry

     iteration #  2     ecut=    50.00 Ry     beta=0.70
     Davidson diagonalization with overlap
     ethr =  1.18E-03,  avg # of iterations =  3.0

     total cpu time spent up to now is       30.1 secs

     total energy              =   -2250.72626679 Ry
     Harris-Foulkes estimate   =   -2250.75042517 Ry
     estimated scf accuracy    <       0.03591145 Ry

     iteration #  3     ecut=    50.00 Ry     beta=0.70
     Davidson diagonalization with overlap
     ethr =  6.65E-05,  avg # of iterations =  4.0

     total cpu time spent up to now is       43.4 secs

     total energy              =   -2250.73606599 Ry
     Harris-Foulkes estimate   =   -2250.74233697 Ry
     estimated scf accuracy    <       0.01287426 Ry

     iteration #  4     ecut=    50.00 Ry     beta=0.70
     Davidson diagonalization with overlap
     ethr =  2.38E-05,  avg # of iterations =  3.5

     total cpu time spent up to now is       55.6 secs

     total energy              =   -2250.73903772 Ry
     Harris-Foulkes estimate   =   -2250.73927753 Ry
     estimated scf accuracy    <       0.00066214 Ry

     iteration #  5     ecut=    50.00 Ry     beta=0.70
     Davidson diagonalization with overlap
     ethr =  1.23E-06,  avg # of iterations =  5.8

     total cpu time spent up to now is       69.3 secs

     total energy              =   -2250.73920677 Ry
     Harris-Foulkes estimate   =   -2250.73920386 Ry
     estimated scf accuracy    <       0.00001896 Ry

     iteration #  6     ecut=    50.00 Ry     beta=0.70
     Davidson diagonalization with overlap
     ethr =  3.51E-08,  avg # of iterations =  3.5

     total cpu time spent up to now is       81.6 secs

     total energy              =   -2250.73921219 Ry
     Harris-Foulkes estimate   =   -2250.73921281 Ry
     estimated scf accuracy    <       0.00000241 Ry

     iteration #  7     ecut=    50.00 Ry     beta=0.70
     Davidson diagonalization with overlap
     ethr =  4.46E-09,  avg # of iterations =  3.9

     total cpu time spent up to now is       94.1 secs

     total energy              =   -2250.73921284 Ry
     Harris-Foulkes estimate   =   -2250.73921356 Ry
     estimated scf accuracy    <       0.00000202 Ry

     iteration #  8     ecut=    50.00 Ry     beta=0.70
     Davidson diagonalization with overlap
     ethr =  3.73E-09,  avg # of iterations =  3.0

     total cpu time spent up to now is      105.5 secs

     End of self-consistent calculation

          k = 0.0000 0.0000 0.0000 (  6619 PWs)   bands (ev):

   -35.8298 -35.8298 -35.8072 -35.8072 -35.7374 -35.7374 -35.7120 -35.7120
   -16.5958 -16.5958 -16.5626 -16.5626 -16.5058 -16.5058 -16.3831 -16.3831
   -12.4508 -12.4508 -12.4052 -12.4052 -12.3609 -12.3609 -12.1991 -12.1991
   -12.1795 -12.1795 -12.1694 -12.1694 -12.0151 -12.0151 -11.9842 -11.9842
     0.6225   0.6225   3.8361   3.8361   3.9496   3.9496   3.9507   3.9507
     3.9542   3.9542   5.0688   5.0688   5.0735   5.0735   5.0828   5.0828
     5.2615   5.2615   7.0696   7.0696   7.3339   7.3339   9.6881   9.6881
     9.6948   9.6948   9.8510   9.8510  11.9722  11.9723  11.9725  11.9725

          k = 0.0000 0.0000 0.2500 (  6595 PWs)   bands (ev):

   -35.8260 -35.8260 -35.8100 -35.8100 -35.7368 -35.7368 -35.7136 -35.7136
   -16.5858 -16.5857 -16.5640 -16.5640 -16.4938 -16.4937 -16.4044 -16.4044
   -12.4160 -12.4159 -12.3849 -12.3848 -12.3302 -12.3301 -12.2298 -12.2295
   -12.1959 -12.1959 -12.1492 -12.1492 -12.0581 -12.0580 -12.0247 -12.0246
     1.0256   1.0257   3.3369   3.3374   4.0972   4.0972   4.0994   4.1001
     4.2243   4.2243   4.8969   4.8978   4.8996   4.9019   5.1461   5.1492
     5.5053   5.5055   6.2971   6.2974   7.7589   7.7591   9.9245   9.9248
    10.0530  10.0550  10.6480  10.6483  11.2254  11.2274  11.4723  11.4730

          k = 0.0000 0.0000-0.5000 (  6568 PWs)   bands (ev):

   -35.8177 -35.8177 -35.8175 -35.8175 -35.7360 -35.7360 -35.7152 -35.7152
   -16.5719 -16.5719 -16.5696 -16.5696 -16.4619 -16.4619 -16.4451 -16.4451
   -12.3632 -12.3632 -12.3566 -12.3566 -12.2852 -12.2852 -12.2851 -12.2851
   -12.1798 -12.1798 -12.1635 -12.1635 -12.0956 -12.0956 -12.0836 -12.0836
     2.0830   2.0830   2.0954   2.0954   4.3891   4.3891   4.3912   4.3912
     4.5826   4.5826   4.5829   4.5829   5.0251   5.0251   5.0419   5.0419
     5.6401   5.6401   5.6526   5.6526   9.1021   9.1021   9.1096   9.1096
    10.3010  10.3010  10.3019  10.3019  10.6787  10.6792  10.6800  10.6810

          k = 0.0000 0.2500 0.2500 (  6624 PWs)   bands (ev):

   -35.8232 -35.8232 -35.8119 -35.8119 -35.7367 -35.7367 -35.7146 -35.7146
   -16.5768 -16.5768 -16.5633 -16.5633 -16.4880 -16.4880 -16.4218 -16.4218
   -12.3962 -12.3961 -12.3759 -12.3758 -12.3128 -12.3128 -12.2378 -12.2378
   -12.1873 -12.1873 -12.1461 -12.1461 -12.1157 -12.1156 -12.0317 -12.0317
     1.3919   1.3919   3.2968   3.2968   4.0897   4.0898   4.1058   4.1059
     4.3248   4.3248   4.3421   4.3422   4.8078   4.8079   5.6430   5.6431
     5.7079   5.7082   5.8065   5.8066   8.1305   8.1305   9.7137   9.7137
    10.1884  10.1884  11.0901  11.0901  11.1538  11.1538  11.3491  11.4090

          k = 0.0000 0.2500-0.5000 (  6610 PWs)   bands (ev):

   -35.8171 -35.8171 -35.8170 -35.8170 -35.7365 -35.7365 -35.7156 -35.7156
   -16.5658 -16.5657 -16.5644 -16.5644 -16.4697 -16.4696 -16.4520 -16.4520
   -12.3705 -12.3702 -12.3674 -12.3671 -12.2684 -12.2681 -12.2632 -12.2629
   -12.1936 -12.1933 -12.1850 -12.1848 -12.0883 -12.0881 -12.0828 -12.0826
     2.3481   2.3484   2.3602   2.3605   4.0237   4.0254   4.0256   4.0274
     4.5774   4.5795   4.5799   4.5822   4.9468   4.9473   4.9600   4.9606
     5.9009   5.9012   5.9133   5.9136   9.0108   9.0112   9.0142   9.0147
    10.5615  10.5620  10.5624  10.5629  10.8157  10.8175  10.8222  10.8242

          k = 0.0000-0.5000-0.5000 (  6632 PWs)   bands (ev):

   -35.8165 -35.8165 -35.8165 -35.8165 -35.7371 -35.7371 -35.7160 -35.7160
   -16.5585 -16.5585 -16.5585 -16.5585 -16.4786 -16.4786 -16.4596 -16.4596
   -12.3677 -12.3677 -12.3672 -12.3672 -12.2781 -12.2781 -12.2723 -12.2723
   -12.1797 -12.1797 -12.1788 -12.1788 -12.0924 -12.0924 -12.0877 -12.0877
     2.8284   2.8284   2.8424   2.8424   3.4216   3.4216   3.4228   3.4228
     4.7323   4.7323   4.7470   4.7470   4.7821   4.7821   4.7834   4.7834
     6.1649   6.1649   6.1779   6.1779   8.9128   8.9128   8.9128   8.9128
    10.4500  10.4501  10.4505  10.4505  10.9034  10.9034  10.9104  10.9104

          k = 0.2500 0.2500 0.2500 (  6595 PWs)   bands (ev):

   -35.8223 -35.8223 -35.8119 -35.8119 -35.7373 -35.7373 -35.7148 -35.7148
   -16.5773 -16.5773 -16.5526 -16.5526 -16.4892 -16.4892 -16.4343 -16.4343
   -12.4034 -12.4031 -12.3635 -12.3634 -12.3212 -12.3212 -12.2321 -12.2319
   -12.1807 -12.1806 -12.1471 -12.1470 -12.1351 -12.1350 -12.0262 -12.0262
     1.6950   1.6953   3.4722   3.4729   3.7931   3.7933   3.8304   3.8305
     4.2009   4.2016   4.4561   4.4568   4.6833   4.6834   5.4557   5.4562
     5.7638   5.7639   6.5192   6.5198   8.3663   8.3664   9.9249   9.9249
    10.1224  10.1229  10.7471  10.7478  10.7854  10.7866  10.8679  10.8685

          k = 0.2500 0.2500-0.5000 (  6608 PWs)   bands (ev):

   -35.8168 -35.8168 -35.8168 -35.8168 -35.7368 -35.7368 -35.7158 -35.7158
   -16.5630 -16.5629 -16.5622 -16.5622 -16.4750 -16.4750 -16.4568 -16.4568
   -12.3849 -12.3846 -12.3814 -12.3813 -12.2930 -12.2928 -12.2926 -12.2924
   -12.1638 -12.1636 -12.1578 -12.1576 -12.0741 -12.0740 -12.0676 -12.0675
     2.5423   2.5430   2.5534   2.5538   3.7145   3.7155   3.7224   3.7234
     4.4298   4.4310   4.4416   4.4426   4.9698   4.9705   4.9769   4.9779
     6.4085   6.4090   6.4228   6.4232   9.2048   9.2050   9.2088   9.2095
    10.1669  10.1679  10.1688  10.1701  10.4049  10.4052  10.4062  10.4072

          k = 0.2500-0.5000-0.5000 (  6572 PWs)   bands (ev):

   -35.8165 -35.8165 -35.8165 -35.8165 -35.7370 -35.7370 -35.7160 -35.7160
   -16.5600 -16.5600 -16.5600 -16.5600 -16.4804 -16.4804 -16.4614 -16.4614
   -12.3950 -12.3948 -12.3925 -12.3923 -12.3173 -12.3172 -12.3169 -12.3168
   -12.1351 -12.1351 -12.1310 -12.1309 -12.0649 -12.0647 -12.0588 -12.0586
     2.9496   2.9502   2.9640   2.9645   3.2089   3.2090   3.2096   3.2098
     4.3100   4.3110   4.3231   4.3240   5.0520   5.0522   5.0531   5.0534
     6.9423   6.9430   6.9577   6.9584   9.2530   9.2530   9.2535   9.2535
     9.8692   9.8716   9.8717   9.8735  10.1911  10.1913  10.1931  10.1933

          k =-0.5000-0.5000-0.5000 (  6704 PWs)   bands (ev):

   -35.8165 -35.8165 -35.8165 -35.8165 -35.7370 -35.7370 -35.7160 -35.7160
   -16.5615 -16.5615 -16.5615 -16.5615 -16.4821 -16.4821 -16.4632 -16.4632
   -12.4175 -12.4175 -12.4139 -12.4139 -12.3450 -12.3450 -12.3434 -12.3434
   -12.1048 -12.1048 -12.0989 -12.0989 -12.0409 -12.0409 -12.0340 -12.0340
     3.0438   3.0438   3.0447   3.0447   3.1026   3.1026   3.1171   3.1171
     3.9969   3.9969   4.0079   4.0079   5.2749   5.2749   5.2764   5.2764
     7.9295   7.9295   7.9437   7.9437   9.5244   9.5245   9.5246   9.5247
     9.6819   9.6821   9.6828   9.6830   9.7554   9.7556   9.7578   9.7581

          k = 0.2500 0.0000 0.0000 (  6595 PWs)   bands (ev):

   -35.8279 -35.8279 -35.8072 -35.8072 -35.7389 -35.7389 -35.7123 -35.7123
   -16.5954 -16.5954 -16.5439 -16.5438 -16.5058 -16.5058 -16.4029 -16.4028
   -12.4350 -12.4347 -12.3547 -12.3545 -12.3354 -12.3354 -12.2021 -12.2018
   -12.1999 -12.1999 -12.1814 -12.1814 -12.0779 -12.0777 -12.0023 -12.0023
     1.0086   1.0089   3.7783   3.7789   4.0647   4.0665   4.0944   4.0946
     4.1186   4.1221   4.2272   4.2273   4.9006   4.9006   4.9075   4.9094
     6.3000   6.3004   6.4395   6.4400   7.4572   7.4573   9.9200   9.9202
    10.0470  10.0499  10.7813  10.7817  11.2158  11.2164  11.2383  11.2403

          k =-0.5000 0.0000 0.0000 (  6568 PWs)   bands (ev):

   -35.8260 -35.8260 -35.8072 -35.8072 -35.7405 -35.7405 -35.7126 -35.7126
   -16.5950 -16.5950 -16.5166 -16.5166 -16.5066 -16.5066 -16.4303 -16.4303
   -12.4152 -12.4152 -12.2776 -12.2776 -12.2625 -12.2625 -12.2407 -12.2407
   -12.2309 -12.2309 -12.2010 -12.2010 -12.1596 -12.1596 -12.0249 -12.0249
     1.7236   1.7236   2.7070   2.7070   4.3209   4.3209   4.3652   4.3652
     4.4847   4.4847   4.5602   4.5602   4.6066   4.6066   4.9906   4.9906
     5.0827   5.0827   7.3928   7.3928   8.0561   8.0561   9.3932   9.3932
    10.0765  10.0765  10.4884  10.4885  10.6479  10.6480  10.6958  10.6961

          k = 0.0000 0.2500-0.2500 (  6624 PWs)   bands (ev):

   -35.8232 -35.8232 -35.8119 -35.8119 -35.7367 -35.7367 -35.7146 -35.7146
   -16.5768 -16.5768 -16.5634 -16.5632 -16.4880 -16.4880 -16.4218 -16.4218
   -12.3963 -12.3960 -12.3759 -12.3757 -12.3130 -12.3127 -12.2380 -12.2376
   -12.1875 -12.1872 -12.1461 -12.1459 -12.1158 -12.1157 -12.0317 -12.0316
     1.3917   1.3920   3.2961   3.2972   4.0890   4.0902   4.1060   4.1064
     4.3208   4.3276   4.3396   4.3456   4.8078   4.8081   5.6435   5.6442
     5.7077   5.7080   5.8057   5.8060   8.1304   8.1305   9.7133   9.7139
    10.1871  10.1890  11.0872  11.0924  11.1539  11.1541  11.3491  11.3494

          k = 0.2500 0.0000-0.2500 (  6624 PWs)   bands (ev):

   -35.8247 -35.8247 -35.8100 -35.8100 -35.7378 -35.7378 -35.7139 -35.7139
   -16.5852 -16.5851 -16.5493 -16.5493 -16.4950 -16.4950 -16.4205 -16.4204
   -12.4100 -12.4097 -12.3524 -12.3523 -12.3224 -12.3223 -12.2126 -12.2124
   -12.1998 -12.1996 -12.1668 -12.1666 -12.1158 -12.1157 -12.0242 -12.0241
     1.3770   1.3773   3.5174   3.5188   3.8837   3.8843   4.1120   4.1134
     4.3261   4.3270   4.3356   4.3360   4.8076   4.8104   5.1352   5.1374
     5.8049   5.8054   6.3411   6.3416   7.9973   7.9974   9.7145   9.7151
    10.1930  10.1941  11.0685  11.0706  11.2014  11.2024  11.2520  11.2544

          k =-0.2500 0.0000-0.2500 (  6624 PWs)   bands (ev):

   -35.8247 -35.8247 -35.8100 -35.8100 -35.7378 -35.7378 -35.7139 -35.7139
   -16.5852 -16.5851 -16.5494 -16.5493 -16.4950 -16.4950 -16.4205 -16.4204
   -12.4102 -12.4098 -12.3525 -12.3524 -12.3224 -12.3223 -12.2127 -12.2125
   -12.1994 -12.1992 -12.1669 -12.1667 -12.1160 -12.1158 -12.0238 -12.0238
     1.3752   1.3756   3.5202   3.5215   3.8856   3.8863   4.1044   4.1056
     4.3243   4.3251   4.3328   4.3340   4.8095   4.8122   5.1410   5.1433
     5.8097   5.8102   6.3452   6.3457   7.9982   7.9984   9.7055   9.7061
    10.1907  10.1916  11.0673  11.0687  11.1972  11.1982  11.2523  11.2544

          k = 0.2500 0.0000 0.5000 (  6610 PWs)   bands (ev):

   -35.8171 -35.8171 -35.8170 -35.8170 -35.7365 -35.7365 -35.7156 -35.7156
   -16.5655 -16.5655 -16.5642 -16.5641 -16.4700 -16.4699 -16.4523 -16.4523
   -12.3657 -12.3654 -12.3610 -12.3608 -12.2806 -12.2805 -12.2796 -12.2795
   -12.1802 -12.1800 -12.1719 -12.1717 -12.0935 -12.0934 -12.0862 -12.0861
     2.3438   2.3443   2.3549   2.3553   4.0394   4.0402   4.0466   4.0475
     4.5784   4.5793   4.5832   4.5842   4.9480   4.9488   4.9621   4.9629
     5.8655   5.8660   5.8821   5.8827   9.0382   9.0386   9.0445   9.0449
    10.6280  10.6292  10.6335  10.6346  10.7685  10.7688  10.7723  10.7729

          k =-0.5000-0.2500 0.0000 (  6610 PWs)   bands (ev):

   -35.8233 -35.8233 -35.8099 -35.8099 -35.7389 -35.7389 -35.7142 -35.7142
   -16.5846 -16.5845 -16.5291 -16.5291 -16.4969 -16.4969 -16.4414 -16.4414
   -12.4036 -12.4032 -12.3127 -12.3127 -12.2693 -12.2690 -12.2628 -12.2627
   -12.2007 -12.2005 -12.1883 -12.1883 -12.1375 -12.1374 -12.0438 -12.0437
     2.0256   2.0257   2.9198   2.9202   3.7079   3.7100   4.1429   4.1455
     4.5464   4.5495   4.6103   4.6136   4.9112   4.9114   4.9988   4.9995
     5.1003   5.1016   7.0478   7.0480   8.3663   8.3664   9.2801   9.2803
    10.4759  10.4764  10.6799  10.6848  10.7979  10.7983  10.8071  10.8106

          k =-0.5000 0.0000 0.5000 (  6632 PWs)   bands (ev):

   -35.8166 -35.8166 -35.8166 -35.8166 -35.7370 -35.7370 -35.7160 -35.7160
   -16.5579 -16.5579 -16.5578 -16.5578 -16.4793 -16.4793 -16.4603 -16.4603
   -12.3556 -12.3556 -12.3505 -12.3505 -12.3046 -12.3046 -12.3005 -12.3005
   -12.1603 -12.1603 -12.1474 -12.1474 -12.1087 -12.1087 -12.0959 -12.0959
     2.7987   2.7987   2.8032   2.8032   3.4711   3.4711   3.4856   3.4856
     4.7193   4.7193   4.7318   4.7318   4.7989   4.7989   4.8019   4.8019
     6.0948   6.0948   6.1149   6.1149   8.9874   8.9874   8.9883   8.9883
    10.6461  10.6461  10.6481  10.6481  10.6952  10.6952  10.7035  10.7036

          k =-0.2500 0.2500-0.2500 (  6595 PWs)   bands (ev):

   -35.8222 -35.8222 -35.8119 -35.8119 -35.7373 -35.7373 -35.7148 -35.7148
   -16.5773 -16.5773 -16.5526 -16.5525 -16.4892 -16.4892 -16.4343 -16.4343
   -12.4033 -12.4029 -12.3634 -12.3632 -12.3213 -12.3211 -12.2321 -12.2319
   -12.1809 -12.1806 -12.1470 -12.1469 -12.1352 -12.1351 -12.0265 -12.0264
     1.6971   1.6975   3.4737   3.4761   3.7892   3.7903   3.8305   3.8312
     4.1975   4.2015   4.4613   4.4621   4.6829   4.6847   5.4487   5.4492
     5.7599   5.7602   6.5184   6.5190   8.3665   8.3666   9.9261   9.9266
    10.1238  10.1244  10.7432  10.7588  10.7860  10.7870  10.8618  10.8764

          k = 0.2500-0.2500-0.2500 (  6595 PWs)   bands (ev):

   -35.8222 -35.8222 -35.8119 -35.8119 -35.7373 -35.7373 -35.7148 -35.7148
   -16.5773 -16.5773 -16.5526 -16.5525 -16.4892 -16.4892 -16.4344 -16.4343
   -12.4031 -12.4028 -12.3632 -12.3632 -12.3212 -12.3212 -12.2320 -12.2319
   -12.1808 -12.1807 -12.1471 -12.1470 -12.1353 -12.1351 -12.0267 -12.0266
     1.6992   1.6996   3.4778   3.4784   3.7858   3.7861   3.8308   3.8309
     4.1976   4.1983   4.4668   4.4676   4.6836   4.6837   5.4403   5.4409
     5.7579   5.7580   6.5173   6.5178   8.3668   8.3669   9.9281   9.9281
    10.1256  10.1261  10.7552  10.7556  10.7847  10.7865  10.8700  10.8702

          k =-0.2500 0.2500 0.5000 (  6608 PWs)   bands (ev):

   -35.8168 -35.8168 -35.8168 -35.8168 -35.7368 -35.7368 -35.7158 -35.7158
   -16.5629 -16.5629 -16.5622 -16.5621 -16.4750 -16.4750 -16.4568 -16.4567
   -12.3847 -12.3846 -12.3813 -12.3810 -12.2930 -12.2927 -12.2927 -12.2925
   -12.1637 -12.1636 -12.1578 -12.1576 -12.0743 -12.0741 -12.0678 -12.0676
     2.5458   2.5462   2.5567   2.5574   3.7101   3.7112   3.7180   3.7192
     4.4340   4.4351   4.4462   4.4473   4.9642   4.9652   4.9715   4.9722
     6.4089   6.4093   6.4225   6.4230   9.2046   9.2053   9.2089   9.2092
    10.1668  10.1685  10.1690  10.1702  10.4018  10.4029  10.4039  10.4043

          k =-0.5000-0.2500 0.2500 (  6608 PWs)   bands (ev):

   -35.8213 -35.8213 -35.8118 -35.8118 -35.7380 -35.7380 -35.7150 -35.7150
   -16.5779 -16.5778 -16.5387 -16.5386 -16.4909 -16.4909 -16.4494 -16.4494
   -12.4099 -12.4095 -12.3295 -12.3295 -12.3248 -12.3246 -12.2829 -12.2827
   -12.1748 -12.1743 -12.1338 -12.1337 -12.1190 -12.1190 -12.0406 -12.0403
     2.2712   2.2713   2.9979   2.9984   3.6781   3.6850   3.7400   3.7409
     4.0230   4.0298   4.6874   4.6879   4.8791   4.8812   5.0438   5.0448
     5.8723   5.8728   7.2732   7.2737   8.7044   8.7044   9.3840   9.3842
    10.0665  10.0702  10.2845  10.2845  10.3035  10.3047  10.4610  10.4610

          k = 0.5000-0.2500-0.2500 (  6608 PWs)   bands (ev):

   -35.8213 -35.8213 -35.8118 -35.8118 -35.7380 -35.7380 -35.7150 -35.7150
   -16.5778 -16.5778 -16.5387 -16.5387 -16.4909 -16.4909 -16.4494 -16.4494
   -12.4097 -12.4097 -12.3295 -12.3295 -12.3247 -12.3247 -12.2828 -12.2828
   -12.1745 -12.1745 -12.1338 -12.1338 -12.1190 -12.1190 -12.0405 -12.0405
     2.2712   2.2713   2.9980   2.9981   3.6824   3.6825   3.7399   3.7401
     4.0262   4.0263   4.6875   4.6875   4.8798   4.8798   5.0444   5.0444
     5.8729   5.8730   7.2732   7.2732   8.7044   8.7044   9.3840   9.3840
    10.0687  10.0688  10.2847  10.2847  10.3042  10.3045  10.4610  10.4610

          k =-0.5000 0.2500 0.5000 (  6572 PWs)   bands (ev):

   -35.8165 -35.8165 -35.8165 -35.8165 -35.7370 -35.7370 -35.7160 -35.7160
   -16.5597 -16.5597 -16.5596 -16.5596 -16.4807 -16.4807 -16.4618 -16.4618
   -12.3912 -12.3911 -12.3873 -12.3872 -12.3248 -12.3246 -12.3227 -12.3225
   -12.1308 -12.1307 -12.1233 -12.1232 -12.0698 -12.0697 -12.0614 -12.0613
     2.9105   2.9109   2.9135   2.9139   3.2627   3.2632   3.2771   3.2776
     4.2961   4.2969   4.3051   4.3059   5.0597   5.0602   5.0618   5.0622
     6.9006   6.9009   6.9150   6.9153   9.3283   9.3286   9.3296   9.3299
    10.0041  10.0056  10.0060  10.0072  10.0654  10.0666  10.0689  10.0702

     the Fermi energy is     9.1462 ev

!    total energy              =   -2250.73921323 Ry
     Harris-Foulkes estimate   =   -2250.73921323 Ry
     estimated scf accuracy    <       0.00000001 Ry

     total all-electron energy =    -90255.082581 Ry

     The total energy is the sum of the following terms:

     one-electron contribution =     -50.85642308 Ry
     hartree contribution      =      44.83941664 Ry
     xc contribution           =    -258.21714121 Ry
     ewald contribution        =    -238.46038836 Ry
     one-center paw contrib.   =   -1748.04198024 Ry
     smearing contrib. (-TS)   =      -0.00269699 Ry

     convergence has been achieved in   8 iterations

     Forces acting on atoms (cartesian axes, Ry/au):

     atom    1 type  1   force =    -0.00025139    0.00052040    0.00052040
     atom    2 type  1   force =     0.00009283    0.00045522    0.00045522
     atom    3 type  1   force =     0.00006950    0.00014357    0.00020830
     atom    4 type  1   force =     0.00006950    0.00020830    0.00014357
     atom    5 type  2   force =    -0.01082082   -0.00273013   -0.00273013
     atom    6 type  2   force =    -0.01091574   -0.00003107    0.00021196
     atom    7 type  2   force =    -0.01090289    0.00015846    0.00015846
     atom    8 type  2   force =    -0.01091574    0.00021196   -0.00003107
     atom    9 type  2   force =     0.01089122    0.00013586   -0.00012165
     atom   10 type  2   force =     0.01087400    0.00038044    0.00038044
     atom   11 type  2   force =     0.01089122   -0.00012165    0.00013586
     atom   12 type  2   force =     0.01090681   -0.00004240   -0.00004240
     atom   13 type  2   force =    -0.00029922    0.00034587    0.00034587
     atom   14 type  2   force =     0.00031071    0.00036519    0.00036519

     Total force =     0.031080     Total SCF correction =     0.000052

     Writing output data file 2389.save
 
     init_run     :      6.34s CPU      6.96s WALL (       1 calls)
     electrons    :     93.07s CPU    116.44s WALL (       1 calls)
     forces       :      1.95s CPU      2.01s WALL (       1 calls)

     Called by init_run:
     wfcinit      :      5.10s CPU      5.36s WALL (       1 calls)
     potinit      :      0.82s CPU      0.91s WALL (       1 calls)

     Called by electrons:
     c_bands      :     75.21s CPU     78.61s WALL (       8 calls)
     sum_band     :     10.58s CPU     11.10s WALL (       8 calls)
     v_of_rho     :      0.10s CPU      0.12s WALL (       9 calls)
     newd         :      1.12s CPU      1.42s WALL (       9 calls)
     PAW_pot      :      6.86s CPU      6.93s WALL (       9 calls)
     mix_rho      :      0.10s CPU      0.11s WALL (       8 calls)

     Called by c_bands:
     init_us_2    :      0.62s CPU      0.63s WALL (     432 calls)
     cegterg      :     65.28s CPU     67.77s WALL (     192 calls)

     Called by sum_band:
     sum_band:bec :      0.92s CPU      0.92s WALL (     192 calls)
     addusdens    :      0.73s CPU      0.99s WALL (       8 calls)

     Called by *egterg:
     h_psi        :     42.12s CPU     43.33s WALL (     910 calls)
     s_psi        :      4.58s CPU      4.59s WALL (     910 calls)
     g_psi        :      0.27s CPU      0.27s WALL (     694 calls)
     cdiaghg      :      6.95s CPU      7.01s WALL (     886 calls)

     Called by h_psi:
     h_psi:pot    :     41.22s CPU     42.37s WALL (     910 calls)
     h_psi:calbec :      3.63s CPU      3.74s WALL (     910 calls)
     vloc_psi     :     32.89s CPU     33.92s WALL (     910 calls)
     add_vuspsi   :      4.69s CPU      4.71s WALL (     910 calls)

     General routines
     calbec       :      5.50s CPU      5.68s WALL (    1198 calls)
     fft          :      0.09s CPU      0.30s WALL (     178 calls)
     fftw         :     32.53s CPU     33.55s WALL (  161072 calls)
     davcio       :      0.01s CPU      0.04s WALL (      24 calls)
 
     Parallel routines
     fft_scatter  :     12.44s CPU     12.89s WALL (  161250 calls)
 
     PWSCF        :  1m42.23s CPU     5m20.44s WALL

 
   This run was terminated on:  13:47:49  30Nov2022            

=------------------------------------------------------------------------------=
   JOB DONE.
=------------------------------------------------------------------------------=
Removing 2389 from /home/shaharpit/tmp
