
     Program PWSCF v.6.1 (svn rev. 13369) starts on 16Nov2022 at 10:50: 0 

     This program is part of the open-source Quantum ESPRESSO suite
     for quantum simulation of materials; please cite
         "P. Giannozzi et al., J. Phys.:Condens. Matter 21 395502 (2009);
          URL http://www.quantum-espresso.org", 
     in publications or presentations arising from this work. More details at
     http://www.quantum-espresso.org/quote

     Parallel version (MPI), running on    32 processors
     R & G space division:  proc/nbgrp/npool/nimage =      32
     Reading input from ./fcc_125_0.9.in
Warning: card &IONS ignored
Warning: card 	ION_DYNAMICS='BFGS', ignored
Warning: card / ignored
Warning: card &CELL ignored
Warning: card / ignored

     Current dimensions of program PWSCF are:
     Max number of different atomic species (ntypx) = 10
     Max number of k-points (npk) =  40000
     Max angular momentum in pseudopotentials (lmaxx) =  3
               file Gd.rel-pbe-spdn-kjpaw_psl.1.0.0.UPF: wavefunction(s)  5P 5P renormalized
               file H.pbe-kjpaw_psl.0.1.UPF: wavefunction(s)  1S renormalized

     Subspace diagonalization in iterative solution of the eigenvalue problem:
     a serial algorithm will be used

 
     Parallelization info
     --------------------
     sticks:   dense  smooth     PW     G-vecs:    dense   smooth      PW
     Min          46      46     13                 1354     1354     213
     Max          47      47     14                 1359     1359     216
     Sum        1481    1481    437                43387    43387    6859
 


     bravais-lattice index     =            0
     lattice parameter (alat)  =       9.6754  a.u.
     unit-cell volume          =     905.7461 (a.u.)^3
     number of atoms/cell      =           14
     number of atomic types    =            2
     number of electrons       =        54.00
     number of Kohn-Sham states=           64
     kinetic-energy cutoff     =      50.0000  Ry
     charge density cutoff     =     200.0000  Ry
     convergence threshold     =      1.0E-06
     mixing beta               =       0.7000
     number of iterations used =            8  plain     mixing
     Exchange-correlation      =  SLA  PW   PBX  PBC ( 1  4  3  4 0 0)
     Non magnetic calculation with spin-orbit


     celldm(1)=   9.675398  celldm(2)=   0.000000  celldm(3)=   0.000000
     celldm(4)=   0.000000  celldm(5)=   0.000000  celldm(6)=   0.000000

     crystal axes: (cart. coord. in units of alat)
               a(1) = (   1.000000   0.000000   0.000000 )  
               a(2) = (   0.000000   1.000000   0.000000 )  
               a(3) = (   0.000000   0.000000   1.000000 )  

     reciprocal axes: (cart. coord. in units 2 pi/alat)
               b(1) = (  1.000000  0.000000  0.000000 )  
               b(2) = (  0.000000  1.000000  0.000000 )  
               b(3) = (  0.000000  0.000000  1.000000 )  


     PseudoPot. # 1 for Gd read from file:
     /home/shaharpit/MeamGdH/dft/qe_potentials/Gd.rel-pbe-spdn-kjpaw_psl.1.0.0.UPF
     MD5 check sum: cf50ec46d1536b4a0251694df1946a53
     Pseudo is Projector augmented-wave + core cor, Zval = 11.0
     Generated using "atomic" code by A. Dal Corso  v.6.2.2
     Shape of augmentation charge: PSQ
     Using radial grid of 1263 points, 10 beta functions with: 
                l(1) =   0
                l(2) =   0
                l(3) =   1
                l(4) =   1
                l(5) =   1
                l(6) =   1
                l(7) =   2
                l(8) =   2
                l(9) =   2
               l(10) =   2
     Q(r) pseudized with 0 coefficients 


     PseudoPot. # 2 for  H read from file:
     /home/shaharpit/MeamGdH/dft/qe_potentials/H.pbe-kjpaw_psl.0.1.UPF
     MD5 check sum: fbb168fef676c0aaadbafd73f5b1efa8
     Pseudo is Projector augmented-wave, Zval =  1.0
     Generated using "atomic" code by A. Dal Corso  v.5.0.2 svn rev. 9415
     Shape of augmentation charge: PSQ
     Using radial grid of  929 points,  2 beta functions with: 
                l(1) =   0
                l(2) =   0
     Q(r) pseudized with 0 coefficients 


     atomic species   valence    mass     pseudopotential
        Gd            11.00   157.25000     Gd( 1.00)
        H              1.00     1.00794      H( 1.00)

      2 Sym. Ops. (no inversion) found



   Cartesian axes

     site n.     atom                  positions (alat units)
         1           Gd  tau(   1) = (   0.0000000   0.0000000   0.0000000  )
         2           Gd  tau(   2) = (   0.0000000   0.5000000   0.5000000  )
         3           Gd  tau(   3) = (   0.5000000   0.0000000   0.5000000  )
         4           Gd  tau(   4) = (   0.5000000   0.5000000   0.0000000  )
         5           H   tau(   5) = (   0.2500000   0.7539000   0.7539000  )
         6           H   tau(   6) = (   0.2500000   0.7501000   0.2500000  )
         7           H   tau(   7) = (   0.2500000   0.2500000   0.2500000  )
         8           H   tau(   8) = (   0.2500000   0.2500000   0.7501000  )
         9           H   tau(   9) = (   0.7501000   0.2500000   0.7501000  )
        10           H   tau(  10) = (   0.7501000   0.2500000   0.2500000  )
        11           H   tau(  11) = (   0.7501000   0.7501000   0.2500000  )
        12           H   tau(  12) = (   0.7501000   0.7501000   0.7501000  )
        13           H   tau(  13) = (   0.5001000   0.5001000   0.5001000  )
        14           H   tau(  14) = (   0.5001000   0.0000000   0.0000000  )

     number of k points=    24  gaussian smearing, width (Ry)=  0.0100
                       cart. coord. in units 2pi/alat
        k(    1) = (   0.0000000   0.0000000   0.0000000), wk =   0.0156250
        k(    2) = (   0.0000000   0.0000000   0.2500000), wk =   0.0625000
        k(    3) = (   0.0000000   0.0000000  -0.5000000), wk =   0.0312500
        k(    4) = (   0.0000000   0.2500000   0.2500000), wk =   0.0312500
        k(    5) = (   0.0000000   0.2500000  -0.5000000), wk =   0.0625000
        k(    6) = (   0.0000000  -0.5000000  -0.5000000), wk =   0.0156250
        k(    7) = (   0.2500000   0.2500000   0.2500000), wk =   0.0312500
        k(    8) = (   0.2500000   0.2500000  -0.5000000), wk =   0.0625000
        k(    9) = (   0.2500000  -0.5000000  -0.5000000), wk =   0.0312500
        k(   10) = (  -0.5000000  -0.5000000  -0.5000000), wk =   0.0156250
        k(   11) = (   0.2500000   0.0000000   0.0000000), wk =   0.0312500
        k(   12) = (  -0.5000000   0.0000000   0.0000000), wk =   0.0156250
        k(   13) = (   0.0000000   0.2500000  -0.2500000), wk =   0.0312500
        k(   14) = (   0.2500000   0.0000000  -0.2500000), wk =   0.0625000
        k(   15) = (  -0.2500000   0.0000000  -0.2500000), wk =   0.0625000
        k(   16) = (   0.2500000   0.0000000   0.5000000), wk =   0.0625000
        k(   17) = (  -0.5000000  -0.2500000   0.0000000), wk =   0.0625000
        k(   18) = (  -0.5000000   0.0000000   0.5000000), wk =   0.0312500
        k(   19) = (  -0.2500000   0.2500000  -0.2500000), wk =   0.0625000
        k(   20) = (   0.2500000  -0.2500000  -0.2500000), wk =   0.0312500
        k(   21) = (  -0.2500000   0.2500000   0.5000000), wk =   0.0625000
        k(   22) = (  -0.5000000  -0.2500000   0.2500000), wk =   0.0312500
        k(   23) = (   0.5000000  -0.2500000  -0.2500000), wk =   0.0312500
        k(   24) = (  -0.5000000   0.2500000   0.5000000), wk =   0.0625000

     Dense  grid:    43387 G-vectors     FFT dimensions: (  45,  45,  45)

     Estimated max dynamical RAM per process >      16.15MB

     Estimated total allocated dynamical RAM >     516.81MB

     Initial potential from superposition of free atoms

     starting charge   53.92372, renormalised to   54.00000
     Starting wfc are  124 randomized atomic wfcs
     Checking if some PAW data can be deallocated... 

     total cpu time spent up to now is        4.2 secs

     per-process dynamical memory:    57.6 Mb

     Self-consistent Calculation

     iteration #  1     ecut=    50.00 Ry     beta=0.70
     Davidson diagonalization with overlap
     ethr =  1.00E-02,  avg # of iterations =  2.2

     total cpu time spent up to now is        7.2 secs

     total energy              =   -2250.66131232 Ry
     Harris-Foulkes estimate   =   -2251.00864189 Ry
     estimated scf accuracy    <       0.62982226 Ry

     iteration #  2     ecut=    50.00 Ry     beta=0.70
     Davidson diagonalization with overlap
     ethr =  1.17E-03,  avg # of iterations =  2.8

     total cpu time spent up to now is       10.5 secs

     total energy              =   -2250.76639705 Ry
     Harris-Foulkes estimate   =   -2250.77848517 Ry
     estimated scf accuracy    <       0.01745207 Ry

     iteration #  3     ecut=    50.00 Ry     beta=0.70
     Davidson diagonalization with overlap
     ethr =  3.23E-05,  avg # of iterations =  4.0

     total cpu time spent up to now is       14.9 secs

     total energy              =   -2250.77145658 Ry
     Harris-Foulkes estimate   =   -2250.77510180 Ry
     estimated scf accuracy    <       0.00695919 Ry

     iteration #  4     ecut=    50.00 Ry     beta=0.70
     Davidson diagonalization with overlap
     ethr =  1.29E-05,  avg # of iterations =  3.8

     total cpu time spent up to now is       18.7 secs

     total energy              =   -2250.77320720 Ry
     Harris-Foulkes estimate   =   -2250.77343869 Ry
     estimated scf accuracy    <       0.00057422 Ry

     iteration #  5     ecut=    50.00 Ry     beta=0.70
     Davidson diagonalization with overlap
     ethr =  1.06E-06,  avg # of iterations =  4.3

     total cpu time spent up to now is       22.6 secs

     total energy              =   -2250.77333906 Ry
     Harris-Foulkes estimate   =   -2250.77333878 Ry
     estimated scf accuracy    <       0.00000967 Ry

     iteration #  6     ecut=    50.00 Ry     beta=0.70
     Davidson diagonalization with overlap
     ethr =  1.79E-08,  avg # of iterations =  3.1

     total cpu time spent up to now is       26.3 secs

     End of self-consistent calculation

          k = 0.0000 0.0000 0.0000 (  5449 PWs)   bands (ev):

   -32.8207 -32.8207 -32.7508 -32.7508 -32.6821 -32.6821 -32.6457 -32.6457
   -13.7158 -13.7158 -13.6696 -13.6696 -13.6067 -13.6067 -13.3153 -13.3153
    -9.7713  -9.7713  -9.7122  -9.7122  -9.6525  -9.6525  -9.2752  -9.2752
    -9.2634  -9.2634  -9.2506  -9.2506  -8.9352  -8.9352  -8.9088  -8.9088
     2.1323   2.1323   5.2863   5.2863   5.5538   5.5538   5.5545   5.5545
     5.5570   5.5570   6.9805   6.9805   7.7255   7.7255   7.7341   7.7341
     7.7484   7.7484   8.9525   8.9525   9.6231   9.6231  12.1128  12.1128
    12.1201  12.1201  12.2778  12.2778  15.0097  15.0097  15.0120  15.0121

          k = 0.0000 0.0000 0.2500 (  5430 PWs)   bands (ev):

   -32.8086 -32.8086 -32.7586 -32.7586 -32.6810 -32.6810 -32.6510 -32.6510
   -13.6953 -13.6951 -13.6688 -13.6686 -13.5776 -13.5776 -13.3649 -13.3648
    -9.7110  -9.7106  -9.6768  -9.6766  -9.5871  -9.5869  -9.3385  -9.3379
    -9.3104  -9.3103  -9.2097  -9.2097  -9.0480  -9.0478  -8.9760  -8.9760
     2.6638   2.6640   5.1455   5.1463   5.8437   5.8438   5.8449   5.8459
     5.8759   5.8760   7.2710   7.2721   7.2927   7.2991   7.4021   7.4091
     7.4277   7.4291   8.3313   8.3316   9.8013   9.8015  12.4242  12.4245
    12.5625  12.5645  13.2849  13.2852  14.0153  14.0171  14.4410  14.4419

          k = 0.0000 0.0000-0.5000 (  5406 PWs)   bands (ev):

   -32.7821 -32.7821 -32.7809 -32.7809 -32.6794 -32.6794 -32.6568 -32.6568
   -13.6753 -13.6753 -13.6708 -13.6708 -13.4876 -13.4876 -13.4716 -13.4716
    -9.6307  -9.6307  -9.6236  -9.6236  -9.4492  -9.4492  -9.4490  -9.4490
    -9.3090  -9.3090  -9.2917  -9.2917  -9.1009  -9.1009  -9.0891  -9.0891
     3.9690   3.9690   3.9832   3.9832   6.4440   6.4440   6.4462   6.4462
     6.7284   6.7284   6.7319   6.7319   6.8183   6.8183   6.8370   6.8370
     7.5786   7.5786   7.5912   7.5912  11.3417  11.3417  11.3503  11.3503
    13.0078  13.0078  13.0091  13.0091  13.3907  13.3908  13.3918  13.3918

          k = 0.0000 0.2500 0.2500 (  5393 PWs)   bands (ev):

   -32.7991 -32.7991 -32.7632 -32.7632 -32.6817 -32.6817 -32.6551 -32.6551
   -13.6745 -13.6745 -13.6642 -13.6642 -13.5665 -13.5665 -13.4074 -13.4073
    -9.6722  -9.6720  -9.6622  -9.6619  -9.5595  -9.5595  -9.3516  -9.3516
    -9.2729  -9.2729  -9.2241  -9.2240  -9.1750  -9.1750  -8.9878  -8.9878
     3.1305   3.1305   5.2051   5.2051   5.9429   5.9430   6.0771   6.0772
     6.1137   6.1138   6.4665   6.4666   7.1684   7.1688   7.5881   7.5884
     7.7332   7.7340   7.7878   7.7885  10.2017  10.2017  12.1483  12.1483
    12.7127  12.7127  13.8034  13.8034  13.9826  13.9826  14.2903  14.2904

          k = 0.0000 0.2500-0.5000 (  5390 PWs)   bands (ev):

   -32.7789 -32.7789 -32.7782 -32.7782 -32.6825 -32.6825 -32.6592 -32.6592
   -13.6597 -13.6595 -13.6565 -13.6564 -13.5101 -13.5100 -13.4928 -13.4926
    -9.6403  -9.6397  -9.6368  -9.6362  -9.4417  -9.4410  -9.4383  -9.4377
    -9.3042  -9.3037  -9.2949  -9.2944  -9.1024  -9.1019  -9.0964  -9.0960
     4.2907   4.2912   4.3042   4.3046   6.1124   6.1144   6.1151   6.1171
     6.6753   6.6762   6.6785   6.6798   6.8161   6.8168   6.8297   6.8307
     7.8180   7.8185   7.8310   7.8316  11.2499  11.2505  11.2540  11.2546
    13.2137  13.2142  13.2146  13.2152  13.5485  13.5500  13.5558  13.5577

          k = 0.0000-0.5000-0.5000 (  5440 PWs)   bands (ev):

   -32.7755 -32.7755 -32.7755 -32.7755 -32.6857 -32.6857 -32.6618 -32.6618
   -13.6371 -13.6371 -13.6371 -13.6371 -13.5393 -13.5393 -13.5188 -13.5188
    -9.6215  -9.6215  -9.6213  -9.6213  -9.5014  -9.5014  -9.4974  -9.4974
    -9.2332  -9.2332  -9.2322  -9.2322  -9.1293  -9.1293  -9.1261  -9.1261
     4.8507   4.8507   4.8647   4.8647   5.4994   5.4994   5.5012   5.5012
     6.7338   6.7338   6.7475   6.7475   6.7903   6.7903   6.7913   6.7913
     8.0760   8.0760   8.0902   8.0902  11.1728  11.1728  11.1728  11.1728
    12.9815  12.9816  12.9819  12.9820  13.6051  13.6053  13.6118  13.6120

          k = 0.2500 0.2500 0.2500 (  5395 PWs)   bands (ev):

   -32.7939 -32.7939 -32.7631 -32.7631 -32.6858 -32.6858 -32.6560 -32.6560
   -13.6767 -13.6767 -13.6381 -13.6380 -13.5695 -13.5694 -13.4424 -13.4424
    -9.6887  -9.6879  -9.6343  -9.6341  -9.5746  -9.5745  -9.3502  -9.3499
    -9.2600  -9.2598  -9.2193  -9.2192  -9.2080  -9.2078  -8.9802  -8.9801
     3.4886   3.4891   5.3946   5.3951   5.7233   5.7239   5.7375   5.7377
     6.1110   6.1116   6.5866   6.5879   6.9327   6.9329   7.4686   7.4694
     7.7916   7.7919   8.5482   8.5491  10.4889  10.4890  12.4022  12.4022
    12.5999  12.6005  13.4038  13.4046  13.4658  13.4668  13.5602  13.5606

          k = 0.2500 0.2500-0.5000 (  5420 PWs)   bands (ev):

   -32.7772 -32.7772 -32.7769 -32.7769 -32.6840 -32.6840 -32.6604 -32.6604
   -13.6530 -13.6528 -13.6508 -13.6508 -13.5277 -13.5275 -13.5092 -13.5092
    -9.6637  -9.6631  -9.6597  -9.6595  -9.5034  -9.5028  -9.5015  -9.5010
    -9.2306  -9.2301  -9.2249  -9.2246  -9.0738  -9.0735  -9.0680  -9.0675
     4.4546   4.4557   4.4672   4.4677   5.5878   5.5892   5.5958   5.5970
     6.5069   6.5085   6.5192   6.5207   7.1766   7.1776   7.1818   7.1835
     8.4069   8.4075   8.4223   8.4229  11.4764  11.4767  11.4809  11.4817
    12.6851  12.6859  12.6871  12.6886  13.0000  13.0002  13.0015  13.0025

          k = 0.2500-0.5000-0.5000 (  5452 PWs)   bands (ev):

   -32.7754 -32.7754 -32.7754 -32.7754 -32.6856 -32.6856 -32.6617 -32.6617
   -13.6443 -13.6442 -13.6442 -13.6442 -13.5469 -13.5469 -13.5266 -13.5266
    -9.6721  -9.6716  -9.6695  -9.6690  -9.5639  -9.5637  -9.5632  -9.5630
    -9.1511  -9.1509  -9.1475  -9.1473  -9.0674  -9.0669  -9.0621  -9.0617
     4.8273   4.8281   4.8420   4.8426   5.0083   5.0084   5.0093   5.0095
     6.4157   6.4169   6.4277   6.4288   7.4294   7.4298   7.4310   7.4316
     9.0340   9.0350   9.0512   9.0522  11.5565  11.5566  11.5570  11.5570
    12.2636  12.2660  12.2660  12.2678  12.7059  12.7061  12.7074  12.7076

          k =-0.5000-0.5000-0.5000 (  5400 PWs)   bands (ev):

   -32.7753 -32.7753 -32.7753 -32.7753 -32.6854 -32.6854 -32.6616 -32.6616
   -13.6514 -13.6514 -13.6513 -13.6513 -13.5545 -13.5545 -13.5344 -13.5344
    -9.7124  -9.7124  -9.7087  -9.7087  -9.6092  -9.6092  -9.6067  -9.6067
    -9.0885  -9.0885  -9.0828  -9.0828  -9.0133  -9.0133  -9.0068  -9.0068
     4.6931   4.6931   4.6938   4.6938   4.7705   4.7705   4.7853   4.7853
     6.3266   6.3266   6.3359   6.3359   7.8996   7.8996   7.9018   7.9018
    10.2862  10.2862  10.3016  10.3016  11.8508  11.8509  11.8513  11.8514
    12.0644  12.0646  12.0660  12.0663  12.1267  12.1270  12.1287  12.1292

          k = 0.2500 0.0000 0.0000 (  5430 PWs)   bands (ev):

   -32.8116 -32.8116 -32.7507 -32.7507 -32.6906 -32.6906 -32.6463 -32.6463
   -13.7133 -13.7133 -13.6251 -13.6249 -13.6039 -13.6039 -13.3644 -13.3643
    -9.7420  -9.7413  -9.6174  -9.6171  -9.6091  -9.6091  -9.3181  -9.3175
    -9.3136  -9.3135  -9.2347  -9.2347  -9.0711  -9.0708  -8.9517  -8.9517
     2.6450   2.6455   5.6166   5.6173   5.8407   5.8407   5.8525   5.8526
     5.8777   5.8778   5.9769   5.9776   7.3846   7.3847   7.4016   7.4028
     8.3349   8.3353   8.5638   8.5644   9.4316   9.4316  12.4188  12.4191
    12.5559  12.5586  13.4145  13.4147  14.0211  14.0236  14.1171  14.1176

          k =-0.5000 0.0000 0.0000 (  5406 PWs)   bands (ev):

   -32.8009 -32.8009 -32.7506 -32.7506 -32.7009 -32.7009 -32.6466 -32.6466
   -13.7108 -13.7108 -13.6040 -13.6040 -13.5429 -13.5429 -13.4479 -13.4479
    -9.7015  -9.7015  -9.5298  -9.5298  -9.4121  -9.4121  -9.3848  -9.3848
    -9.3816  -9.3816  -9.3442  -9.3442  -9.1757  -9.1757  -9.0135  -9.0135
     3.5489   3.5489   4.8095   4.8095   6.0016   6.0016   6.4225   6.4225
     6.5134   6.5134   6.7101   6.7101   6.7519   6.7519   6.7653   6.7653
     6.8956   6.8956   9.6015   9.6015  10.1566  10.1566  11.6431  11.6431
    12.6981  12.6981  13.2697  13.2700  13.3426  13.3435  13.4242  13.4248

          k = 0.0000 0.2500-0.2500 (  5393 PWs)   bands (ev):

   -32.7991 -32.7991 -32.7632 -32.7632 -32.6817 -32.6817 -32.6551 -32.6551
   -13.6746 -13.6745 -13.6644 -13.6640 -13.5665 -13.5665 -13.4075 -13.4072
    -9.6726  -9.6719  -9.6621  -9.6617  -9.5597  -9.5592  -9.3521  -9.3510
    -9.2732  -9.2726  -9.2243  -9.2239  -9.1751  -9.1746  -8.9879  -8.9878
     3.1303   3.1307   5.2041   5.2058   5.9421   5.9437   6.0745   6.0786
     6.1119   6.1163   6.4668   6.4672   7.1685   7.1692   7.5882   7.5886
     7.7353   7.7363   7.7853   7.7857  10.2016  10.2016  12.1479  12.1486
    12.7113  12.7132  13.8010  13.8052  13.9829  13.9829  14.2875  14.2941

          k = 0.2500 0.0000-0.2500 (  5393 PWs)   bands (ev):

   -32.8015 -32.8015 -32.7582 -32.7582 -32.6872 -32.6872 -32.6520 -32.6520
   -13.6928 -13.6926 -13.6329 -13.6327 -13.5804 -13.5803 -13.4069 -13.4068
    -9.7017  -9.7009  -9.6144  -9.6142  -9.5755  -9.5753  -9.3170  -9.3164
    -9.2967  -9.2962  -9.2501  -9.2497  -9.1698  -9.1695  -8.9814  -8.9813
     3.1145   3.1151   5.4334   5.4355   5.9567   5.9581   6.0310   6.0324
     6.1072   6.1081   6.1915   6.1921   7.1309   7.1407   7.2282   7.2378
     7.7838   7.7845   8.3602   8.3609  10.0688  10.0689  12.1413  12.1420
    12.7179  12.7189  13.8254  13.8280  14.0486  14.0497  14.0655  14.0690

          k =-0.2500 0.0000-0.2500 (  5393 PWs)   bands (ev):

   -32.8015 -32.8015 -32.7582 -32.7582 -32.6872 -32.6872 -32.6520 -32.6520
   -13.6927 -13.6926 -13.6330 -13.6328 -13.5804 -13.5803 -13.4068 -13.4067
    -9.7019  -9.7010  -9.6150  -9.6147  -9.5756  -9.5754  -9.3167  -9.3163
    -9.2967  -9.2961  -9.2500  -9.2495  -9.1692  -9.1689  -8.9814  -8.9813
     3.1118   3.1124   5.4358   5.4379   5.9457   5.9470   6.0304   6.0320
     6.1046   6.1055   6.1913   6.1922   7.1371   7.1470   7.2351   7.2447
     7.7898   7.7905   8.3658   8.3665  10.0699  10.0701  12.1303  12.1310
    12.7150  12.7159  13.8247  13.8266  14.0439  14.0449  14.0667  14.0687

          k = 0.2500 0.0000 0.5000 (  5390 PWs)   bands (ev):

   -32.7789 -32.7789 -32.7783 -32.7783 -32.6824 -32.6824 -32.6592 -32.6592
   -13.6590 -13.6588 -13.6557 -13.6555 -13.5109 -13.5107 -13.4937 -13.4935
    -9.6357  -9.6352  -9.6308  -9.6302  -9.4542  -9.4540  -9.4523  -9.4521
    -9.2913  -9.2909  -9.2835  -9.2830  -9.1064  -9.1062  -9.1001  -9.0998
     4.2857   4.2864   4.2981   4.2988   6.1350   6.1364   6.1434   6.1451
     6.6724   6.6737   6.6795   6.6809   6.8202   6.8217   6.8349   6.8366
     7.7716   7.7724   7.7891   7.7900  11.2778  11.2781  11.2849  11.2853
    13.3296  13.3311  13.3357  13.3370  13.4734  13.4739  13.4775  13.4782

          k =-0.5000-0.2500 0.0000 (  5390 PWs)   bands (ev):

   -32.7935 -32.7935 -32.7579 -32.7579 -32.6947 -32.6947 -32.6528 -32.6528
   -13.6902 -13.6900 -13.5844 -13.5843 -13.5715 -13.5714 -13.4731 -13.4731
    -9.6897  -9.6888  -9.5620  -9.5619  -9.4491  -9.4485  -9.4324  -9.4321
    -9.3157  -9.3150  -9.3013  -9.3012  -9.1600  -9.1598  -9.0443  -9.0438
     3.9175   3.9177   5.0266   5.0272   5.7175   5.7207   6.2214   6.2250
     6.6280   6.6356   6.7102   6.7150   6.7634   6.7639   6.8761   6.8780
     6.8916   6.8939   9.1489   9.1493  10.5250  10.5250  11.5377  11.5378
    13.1264  13.1271  13.3466  13.3517  13.5295  13.5345  13.5572  13.6016

          k =-0.5000 0.0000 0.5000 (  5440 PWs)   bands (ev):

   -32.7756 -32.7756 -32.7756 -32.7756 -32.6856 -32.6856 -32.6618 -32.6618
   -13.6349 -13.6349 -13.6347 -13.6347 -13.5417 -13.5417 -13.5213 -13.5213
    -9.6061  -9.6061  -9.5999  -9.5999  -9.5285  -9.5285  -9.5228  -9.5228
    -9.2128  -9.2128  -9.2004  -9.2004  -9.1519  -9.1519  -9.1399  -9.1399
     4.8120   4.8120   4.8149   4.8149   5.5708   5.5708   5.5880   5.5880
     6.7151   6.7151   6.7284   6.7284   6.8125   6.8125   6.8151   6.8151
     7.9804   7.9804   8.0025   8.0025  11.2621  11.2621  11.2630  11.2630
    13.2542  13.2542  13.2561  13.2561  13.3153  13.3153  13.3233  13.3233

          k =-0.2500 0.2500-0.2500 (  5395 PWs)   bands (ev):

   -32.7939 -32.7939 -32.7631 -32.7631 -32.6858 -32.6858 -32.6560 -32.6560
   -13.6768 -13.6766 -13.6381 -13.6378 -13.5695 -13.5694 -13.4426 -13.4424
    -9.6885  -9.6876  -9.6338  -9.6334  -9.5747  -9.5743  -9.3503  -9.3501
    -9.2605  -9.2596  -9.2200  -9.2198  -9.2080  -9.2077  -8.9803  -8.9802
     3.4919   3.4925   5.3996   5.4027   5.7202   5.7217   5.7379   5.7393
     6.1049   6.1099   6.5924   6.5932   6.9324   6.9342   7.4583   7.4589
     7.7840   7.7847   8.5474   8.5481  10.4891  10.4892  12.4038  12.4045
    12.6018  12.6026  13.4031  13.4168  13.4658  13.4667  13.5536  13.5668

          k = 0.2500-0.2500-0.2500 (  5395 PWs)   bands (ev):

   -32.7939 -32.7939 -32.7631 -32.7631 -32.6858 -32.6858 -32.6560 -32.6560
   -13.6767 -13.6767 -13.6378 -13.6378 -13.5694 -13.5694 -13.4427 -13.4426
    -9.6881  -9.6874  -9.6332  -9.6331  -9.5746  -9.5745  -9.3504  -9.3503
    -9.2602  -9.2600  -9.2201  -9.2198  -9.2089  -9.2083  -8.9803  -8.9802
     3.4953   3.4959   5.4082   5.4086   5.7177   5.7184   5.7389   5.7391
     6.1033   6.1039   6.5980   6.5993   6.9329   6.9331   7.4461   7.4471
     7.7790   7.7791   8.5461   8.5469  10.4895  10.4895  12.4064  12.4065
    12.6042  12.6048  13.4162  13.4168  13.4644  13.4662  13.5594  13.5595

          k =-0.2500 0.2500 0.5000 (  5420 PWs)   bands (ev):

   -32.7772 -32.7772 -32.7769 -32.7769 -32.6840 -32.6840 -32.6604 -32.6604
   -13.6528 -13.6528 -13.6508 -13.6506 -13.5276 -13.5276 -13.5094 -13.5092
    -9.6631  -9.6628  -9.6595  -9.6588  -9.5036  -9.5031  -9.5018  -9.5013
    -9.2307  -9.2304  -9.2253  -9.2248  -9.0741  -9.0736  -9.0679  -9.0677
     4.4606   4.4612   4.4727   4.4737   5.5845   5.5858   5.5924   5.5938
     6.5058   6.5073   6.5187   6.5203   7.1723   7.1740   7.1777   7.1789
     8.4071   8.4076   8.4217   8.4223  11.4762  11.4770  11.4811  11.4814
    12.6846  12.6866  12.6872  12.6883  12.9961  12.9972  12.9985  12.9989

          k =-0.5000-0.2500 0.2500 (  5420 PWs)   bands (ev):

   -32.7882 -32.7882 -32.7630 -32.7630 -32.6907 -32.6907 -32.6566 -32.6566
   -13.6790 -13.6788 -13.5951 -13.5950 -13.5733 -13.5733 -13.4934 -13.4934
    -9.7034  -9.7025  -9.5884  -9.5882  -9.5472  -9.5465  -9.4837  -9.4834
    -9.2488  -9.2477  -9.2000  -9.1999  -9.1251  -9.1250  -9.0295  -9.0287
     4.1571   4.1571   4.9614   4.9621   5.5499   5.5561   5.6156   5.6167
     6.1392   6.1453   6.6282   6.6290   7.1585   7.1596   7.2107   7.2133
     7.8249   7.8256   9.4153   9.4158  10.9124  10.9125  11.6648  11.6650
    12.5464  12.5498  12.8563  12.8565  12.8610  12.8624  13.0696  13.0696

          k = 0.5000-0.2500-0.2500 (  5420 PWs)   bands (ev):

   -32.7882 -32.7882 -32.7630 -32.7630 -32.6907 -32.6907 -32.6566 -32.6566
   -13.6789 -13.6788 -13.5951 -13.5951 -13.5733 -13.5733 -13.4934 -13.4934
    -9.7029  -9.7029  -9.5884  -9.5883  -9.5468  -9.5468  -9.4836  -9.4835
    -9.2483  -9.2483  -9.2000  -9.2000  -9.1251  -9.1251  -9.0291  -9.0291
     4.1571   4.1571   4.9616   4.9616   5.5539   5.5540   5.6156   5.6158
     6.1420   6.1421   6.6283   6.6283   7.1591   7.1592   7.2116   7.2117
     7.8257   7.8257   9.4153   9.4153  10.9124  10.9124  11.6648  11.6648
    12.5484  12.5485  12.8567  12.8568  12.8617  12.8619  13.0696  13.0696

          k =-0.5000 0.2500 0.5000 (  5452 PWs)   bands (ev):

   -32.7755 -32.7755 -32.7755 -32.7755 -32.6855 -32.6855 -32.6617 -32.6617
   -13.6432 -13.6432 -13.6430 -13.6430 -13.5481 -13.5481 -13.5279 -13.5278
    -9.6674  -9.6671  -9.6630  -9.6627  -9.5719  -9.5715  -9.5687  -9.5682
    -9.1463  -9.1460  -9.1391  -9.1388  -9.0740  -9.0738  -9.0662  -9.0660
     4.7700   4.7706   4.7716   4.7721   5.0807   5.0815   5.0958   5.0966
     6.4023   6.4034   6.4110   6.4120   7.4416   7.4424   7.4441   7.4450
     8.9754   8.9758   8.9905   8.9909  11.6488  11.6491  11.6500  11.6503
    12.4518  12.4532  12.4538  12.4549  12.5306  12.5318  12.5339  12.5351

     the Fermi energy is    11.4093 ev

!    total energy              =   -2250.77334248 Ry
     Harris-Foulkes estimate   =   -2250.77334241 Ry
     estimated scf accuracy    <       0.00000084 Ry

     total all-electron energy =    -90255.116711 Ry

     The total energy is the sum of the following terms:

     one-electron contribution =     -27.33295384 Ry
     hartree contribution      =      38.78552508 Ry
     xc contribution           =    -259.19426526 Ry
     ewald contribution        =    -254.95700351 Ry
     one-center paw contrib.   =   -1748.07237935 Ry
     smearing contrib. (-TS)   =      -0.00226561 Ry

     convergence has been achieved in   6 iterations

     Writing output data file 2313.save
 
     init_run     :      1.80s CPU      2.51s WALL (       1 calls)
     electrons    :     21.56s CPU     22.29s WALL (       1 calls)

     Called by init_run:
     wfcinit      :      1.51s CPU      1.74s WALL (       1 calls)
     potinit      :      0.13s CPU      0.21s WALL (       1 calls)

     Called by electrons:
     c_bands      :     17.81s CPU     18.22s WALL (       6 calls)
     sum_band     :      2.48s CPU      2.58s WALL (       6 calls)
     v_of_rho     :      0.02s CPU      0.03s WALL (       7 calls)
     newd         :      0.53s CPU      0.56s WALL (       7 calls)
     PAW_pot      :      0.86s CPU      0.92s WALL (       7 calls)
     mix_rho      :      0.03s CPU      0.05s WALL (       6 calls)

     Called by c_bands:
     init_us_2    :      0.08s CPU      0.09s WALL (     312 calls)
     cegterg      :     16.86s CPU     17.26s WALL (     144 calls)

     Called by sum_band:
     sum_band:bec :      0.68s CPU      0.68s WALL (     144 calls)
     addusdens    :      0.09s CPU      0.10s WALL (       6 calls)

     Called by *egterg:
     h_psi        :      9.70s CPU     10.09s WALL (     652 calls)
     s_psi        :      1.02s CPU      1.02s WALL (     652 calls)
     g_psi        :      0.03s CPU      0.03s WALL (     484 calls)
     cdiaghg      :      5.12s CPU      5.29s WALL (     628 calls)

     Called by h_psi:
     h_psi:pot    :      9.60s CPU      9.99s WALL (     652 calls)
     h_psi:calbec :      0.57s CPU      0.61s WALL (     652 calls)
     vloc_psi     :      7.94s CPU      8.28s WALL (     652 calls)
     add_vuspsi   :      1.08s CPU      1.09s WALL (     652 calls)

     General routines
     calbec       :      0.75s CPU      0.79s WALL (     796 calls)
     fft          :      0.02s CPU      0.13s WALL (     129 calls)
     fftw         :      8.53s CPU      8.92s WALL (  125852 calls)
     davcio       :      0.00s CPU      0.00s WALL (      24 calls)
 
     Parallel routines
     fft_scatter  :      4.27s CPU      4.49s WALL (  125981 calls)
 
     PWSCF        :  1m11.33s CPU     1m21.94s WALL

 
   This run was terminated on:  10:51:22  16Nov2022            

=------------------------------------------------------------------------------=
   JOB DONE.
=------------------------------------------------------------------------------=
Removing 2313 from /home/shaharpit/tmp
