
     Program PWSCF v.6.1 (svn rev. 13369) starts on 16Nov2022 at 10:54:20 

     This program is part of the open-source Quantum ESPRESSO suite
     for quantum simulation of materials; please cite
         "P. Giannozzi et al., J. Phys.:Condens. Matter 21 395502 (2009);
          URL http://www.quantum-espresso.org", 
     in publications or presentations arising from this work. More details at
     http://www.quantum-espresso.org/quote

     Parallel version (MPI), running on    32 processors
     R & G space division:  proc/nbgrp/npool/nimage =      32
     Reading input from ./fcc_75_1.in
Warning: card &IONS ignored
Warning: card 	ION_DYNAMICS='BFGS', ignored
Warning: card / ignored
Warning: card &CELL ignored
Warning: card / ignored

     Current dimensions of program PWSCF are:
     Max number of different atomic species (ntypx) = 10
     Max number of k-points (npk) =  40000
     Max angular momentum in pseudopotentials (lmaxx) =  3
               file Gd.rel-pbe-spdn-kjpaw_psl.1.0.0.UPF: wavefunction(s)  5P 5P renormalized
               file H.pbe-kjpaw_psl.0.1.UPF: wavefunction(s)  1S renormalized

     Subspace diagonalization in iterative solution of the eigenvalue problem:
     a serial algorithm will be used

 
     Parallelization info
     --------------------
     sticks:   dense  smooth     PW     G-vecs:    dense   smooth      PW
     Min          49      49     14                 1495     1495     233
     Max          50      50     16                 1500     1500     236
     Sum        1597    1597    465                47937    47937    7497
 


     bravais-lattice index     =            0
     lattice parameter (alat)  =      10.0212  a.u.
     unit-cell volume          =    1006.3788 (a.u.)^3
     number of atoms/cell      =           10
     number of atomic types    =            2
     number of electrons       =        50.00
     number of Kohn-Sham states=           60
     kinetic-energy cutoff     =      50.0000  Ry
     charge density cutoff     =     200.0000  Ry
     convergence threshold     =      1.0E-06
     mixing beta               =       0.7000
     number of iterations used =            8  plain     mixing
     Exchange-correlation      =  SLA  PW   PBX  PBC ( 1  4  3  4 0 0)
     Non magnetic calculation with spin-orbit


     celldm(1)=  10.021218  celldm(2)=   0.000000  celldm(3)=   0.000000
     celldm(4)=   0.000000  celldm(5)=   0.000000  celldm(6)=   0.000000

     crystal axes: (cart. coord. in units of alat)
               a(1) = (   1.000000   0.000000   0.000000 )  
               a(2) = (   0.000000   1.000000   0.000000 )  
               a(3) = (   0.000000   0.000000   1.000000 )  

     reciprocal axes: (cart. coord. in units 2 pi/alat)
               b(1) = (  1.000000  0.000000  0.000000 )  
               b(2) = (  0.000000  1.000000  0.000000 )  
               b(3) = (  0.000000  0.000000  1.000000 )  


     PseudoPot. # 1 for Gd read from file:
     /home/shaharpit/MeamGdH/dft/qe_potentials/Gd.rel-pbe-spdn-kjpaw_psl.1.0.0.UPF
     MD5 check sum: cf50ec46d1536b4a0251694df1946a53
     Pseudo is Projector augmented-wave + core cor, Zval = 11.0
     Generated using "atomic" code by A. Dal Corso  v.6.2.2
     Shape of augmentation charge: PSQ
     Using radial grid of 1263 points, 10 beta functions with: 
                l(1) =   0
                l(2) =   0
                l(3) =   1
                l(4) =   1
                l(5) =   1
                l(6) =   1
                l(7) =   2
                l(8) =   2
                l(9) =   2
               l(10) =   2
     Q(r) pseudized with 0 coefficients 


     PseudoPot. # 2 for  H read from file:
     /home/shaharpit/MeamGdH/dft/qe_potentials/H.pbe-kjpaw_psl.0.1.UPF
     MD5 check sum: fbb168fef676c0aaadbafd73f5b1efa8
     Pseudo is Projector augmented-wave, Zval =  1.0
     Generated using "atomic" code by A. Dal Corso  v.5.0.2 svn rev. 9415
     Shape of augmentation charge: PSQ
     Using radial grid of  929 points,  2 beta functions with: 
                l(1) =   0
                l(2) =   0
     Q(r) pseudized with 0 coefficients 


     atomic species   valence    mass     pseudopotential
        Gd            11.00   157.25000     Gd( 1.00)
        H              1.00     1.00794      H( 1.00)

     No symmetry found



   Cartesian axes

     site n.     atom                  positions (alat units)
         1           Gd  tau(   1) = (   0.0000000   0.0000000   0.0000000  )
         2           Gd  tau(   2) = (   0.0000000   0.5000000   0.5000000  )
         3           Gd  tau(   3) = (   0.5000000   0.0000000   0.5000000  )
         4           Gd  tau(   4) = (   0.5000000   0.5000000   0.0000000  )
         5           H   tau(   5) = (   0.2500000   0.7539000   0.7539000  )
         6           H   tau(   6) = (   0.2500000   0.7501000   0.2500000  )
         7           H   tau(   7) = (   0.2500000   0.2500000   0.2500000  )
         8           H   tau(   8) = (   0.2500000   0.2500000   0.7501000  )
         9           H   tau(   9) = (   0.7501000   0.2500000   0.7501000  )
        10           H   tau(  10) = (   0.7501000   0.2500000   0.2500000  )

     number of k points=    36  gaussian smearing, width (Ry)=  0.0100
                       cart. coord. in units 2pi/alat
        k(    1) = (   0.0000000   0.0000000   0.0000000), wk =   0.0156250
        k(    2) = (   0.0000000   0.0000000   0.2500000), wk =   0.0312500
        k(    3) = (   0.0000000   0.0000000  -0.5000000), wk =   0.0156250
        k(    4) = (   0.0000000   0.2500000   0.2500000), wk =   0.0312500
        k(    5) = (   0.0000000   0.2500000  -0.5000000), wk =   0.0312500
        k(    6) = (   0.0000000  -0.5000000  -0.5000000), wk =   0.0156250
        k(    7) = (   0.2500000   0.2500000   0.2500000), wk =   0.0312500
        k(    8) = (   0.2500000   0.2500000  -0.5000000), wk =   0.0312500
        k(    9) = (   0.2500000  -0.5000000  -0.5000000), wk =   0.0312500
        k(   10) = (  -0.5000000  -0.5000000  -0.5000000), wk =   0.0156250
        k(   11) = (   0.2500000   0.0000000   0.0000000), wk =   0.0312500
        k(   12) = (   0.0000000   0.2500000   0.0000000), wk =   0.0312500
        k(   13) = (  -0.5000000   0.0000000   0.0000000), wk =   0.0156250
        k(   14) = (   0.0000000  -0.5000000   0.0000000), wk =   0.0156250
        k(   15) = (   0.0000000  -0.2500000   0.2500000), wk =   0.0312500
        k(   16) = (   0.2500000   0.0000000  -0.2500000), wk =   0.0312500
        k(   17) = (  -0.2500000   0.0000000  -0.2500000), wk =   0.0312500
        k(   18) = (   0.2500000  -0.2500000   0.0000000), wk =   0.0312500
        k(   19) = (  -0.2500000  -0.2500000   0.0000000), wk =   0.0312500
        k(   20) = (   0.2500000   0.0000000   0.5000000), wk =   0.0312500
        k(   21) = (  -0.5000000  -0.2500000   0.0000000), wk =   0.0312500
        k(   22) = (   0.0000000  -0.5000000   0.2500000), wk =   0.0312500
        k(   23) = (   0.2500000  -0.5000000   0.0000000), wk =   0.0312500
        k(   24) = (  -0.5000000   0.0000000   0.2500000), wk =   0.0312500
        k(   25) = (  -0.5000000   0.0000000   0.5000000), wk =   0.0156250
        k(   26) = (  -0.5000000   0.5000000   0.0000000), wk =   0.0156250
        k(   27) = (  -0.2500000  -0.2500000   0.2500000), wk =   0.0312500
        k(   28) = (  -0.2500000   0.2500000  -0.2500000), wk =   0.0312500
        k(   29) = (   0.2500000  -0.2500000  -0.2500000), wk =   0.0312500
        k(   30) = (  -0.2500000   0.2500000   0.5000000), wk =   0.0312500
        k(   31) = (  -0.5000000  -0.2500000   0.2500000), wk =   0.0312500
        k(   32) = (   0.5000000  -0.2500000  -0.2500000), wk =   0.0312500
        k(   33) = (  -0.2500000  -0.5000000   0.2500000), wk =   0.0312500
        k(   34) = (  -0.2500000   0.5000000  -0.2500000), wk =   0.0312500
        k(   35) = (  -0.5000000   0.2500000   0.5000000), wk =   0.0312500
        k(   36) = (  -0.5000000   0.5000000   0.2500000), wk =   0.0312500

     Dense  grid:    47937 G-vectors     FFT dimensions: (  45,  45,  45)

     Estimated max dynamical RAM per process >      20.60MB

     Estimated total allocated dynamical RAM >     659.14MB

     Check: negative/imaginary core charge=   -0.000002    0.000000

     Initial potential from superposition of free atoms

     starting charge   49.92376, renormalised to   50.00000
     Starting wfc are  116 randomized atomic wfcs
     Checking if some PAW data can be deallocated... 

     total cpu time spent up to now is        5.7 secs

     per-process dynamical memory:    62.6 Mb

     Self-consistent Calculation

     iteration #  1     ecut=    50.00 Ry     beta=0.70
     Davidson diagonalization with overlap
     ethr =  1.00E-02,  avg # of iterations =  2.0

     total cpu time spent up to now is       10.8 secs

     total energy              =   -2245.75767585 Ry
     Harris-Foulkes estimate   =   -2246.08006455 Ry
     estimated scf accuracy    <       0.51732131 Ry

     iteration #  2     ecut=    50.00 Ry     beta=0.70
     Davidson diagonalization with overlap
     ethr =  1.03E-03,  avg # of iterations =  2.9

     total cpu time spent up to now is       16.3 secs

     total energy              =   -2245.83555266 Ry
     Harris-Foulkes estimate   =   -2245.93480769 Ry
     estimated scf accuracy    <       0.17604252 Ry

     iteration #  3     ecut=    50.00 Ry     beta=0.70
     Davidson diagonalization with overlap
     ethr =  3.52E-04,  avg # of iterations =  2.6

     total cpu time spent up to now is       21.8 secs

     total energy              =   -2245.88275459 Ry
     Harris-Foulkes estimate   =   -2245.90025751 Ry
     estimated scf accuracy    <       0.03874797 Ry

     iteration #  4     ecut=    50.00 Ry     beta=0.70
     Davidson diagonalization with overlap
     ethr =  7.75E-05,  avg # of iterations =  2.0

     total cpu time spent up to now is       26.6 secs

     total energy              =   -2245.89051532 Ry
     Harris-Foulkes estimate   =   -2245.89053307 Ry
     estimated scf accuracy    <       0.00022334 Ry

     iteration #  5     ecut=    50.00 Ry     beta=0.70
     Davidson diagonalization with overlap
     ethr =  4.47E-07,  avg # of iterations =  6.4

     total cpu time spent up to now is       35.6 secs

     total energy              =   -2245.89068321 Ry
     Harris-Foulkes estimate   =   -2245.89069596 Ry
     estimated scf accuracy    <       0.00004331 Ry

     iteration #  6     ecut=    50.00 Ry     beta=0.70
     Davidson diagonalization with overlap
     ethr =  8.66E-08,  avg # of iterations =  2.0

     total cpu time spent up to now is       40.9 secs

     total energy              =   -2245.89069207 Ry
     Harris-Foulkes estimate   =   -2245.89069183 Ry
     estimated scf accuracy    <       0.00000222 Ry

     iteration #  7     ecut=    50.00 Ry     beta=0.70
     Davidson diagonalization with overlap
     ethr =  4.45E-09,  avg # of iterations =  3.7

     total cpu time spent up to now is       46.6 secs

     total energy              =   -2245.89069223 Ry
     Harris-Foulkes estimate   =   -2245.89069273 Ry
     estimated scf accuracy    <       0.00000111 Ry

     iteration #  8     ecut=    50.00 Ry     beta=0.70
     Davidson diagonalization with overlap
     ethr =  2.22E-09,  avg # of iterations =  2.9

     total cpu time spent up to now is       51.9 secs

     End of self-consistent calculation

          k = 0.0000 0.0000 0.0000 (  6031 PWs)   bands (ev):

   -34.8282 -34.8282 -34.7770 -34.7770 -34.7701 -34.7701 -34.7608 -34.7608
   -15.6233 -15.6233 -15.6153 -15.6153 -15.6053 -15.6053 -15.3968 -15.3968
   -11.5460 -11.5460 -11.5314 -11.5314 -11.4980 -11.4980 -11.2428 -11.2428
   -11.2344 -11.2344 -11.2269 -11.2269 -11.0171 -11.0171 -11.0016 -11.0016
     1.9788   1.9788   4.2975   4.2975   4.6550   4.6550   4.9770   4.9770
     5.9062   5.9062   6.7775   6.7775   7.5352   7.5352   7.5386   7.5386
     7.5404   7.5404   9.6392   9.6392  10.5656  10.5656  10.5741  10.5741
    10.7351  10.7351  11.7103  11.7103

          k = 0.0000 0.0000 0.2500 (  6023 PWs)   bands (ev):

   -34.8201 -34.8201 -34.7804 -34.7804 -34.7736 -34.7736 -34.7619 -34.7619
   -15.6210 -15.6201 -15.6077 -15.6072 -15.5837 -15.5826 -15.4294 -15.4292
   -11.5162 -11.5158 -11.4756 -11.4753 -11.4640 -11.4627 -11.2804 -11.2800
   -11.2674 -11.2668 -11.1951 -11.1950 -11.1006 -11.1005 -11.0352 -11.0352
     2.4070   2.4071   4.5098   4.5106   4.6679   4.6681   4.8463   4.8465
     5.6427   5.6447   5.9255   5.9256   7.9562   7.9567   7.9595   7.9605
     8.3398   8.3398   9.3526   9.3529   9.9703   9.9705  10.8386  10.8387
    10.9761  10.9770  12.2221  12.2221

          k = 0.0000 0.0000-0.5000 (  5942 PWs)   bands (ev):

   -34.8052 -34.8052 -34.7935 -34.7935 -34.7748 -34.7748 -34.7624 -34.7624
   -15.6182 -15.6182 -15.6078 -15.6078 -15.5126 -15.5126 -15.5016 -15.5016
   -11.4612 -11.4612 -11.4523 -11.4523 -11.3297 -11.3297 -11.3211 -11.3211
   -11.2901 -11.2901 -11.2815 -11.2815 -11.1210 -11.1210 -11.1104 -11.1104
     3.5099   3.5099   3.5257   3.5257   5.0423   5.0423   5.0439   5.0439
     5.3045   5.3045   5.3161   5.3161   8.5852   8.5852   8.5869   8.5869
     8.9093   8.9093   8.9114   8.9114  10.5631  10.5631  10.5735  10.5735
    11.4106  11.4106  11.4151  11.4151

          k = 0.0000 0.2500 0.2500 (  6016 PWs)   bands (ev):

   -34.8133 -34.8133 -34.7810 -34.7810 -34.7772 -34.7772 -34.7645 -34.7645
   -15.6128 -15.6112 -15.5902 -15.5873 -15.5862 -15.5837 -15.4573 -15.4570
   -11.4934 -11.4923 -11.4601 -11.4578 -11.4442 -11.4438 -11.2758 -11.2749
   -11.2298 -11.2295 -11.2202 -11.2200 -11.1798 -11.1794 -11.0515 -11.0514
     2.7596   2.7598   4.6160   4.6167   4.7188   4.7197   4.7920   4.7935
     5.2189   5.2200   5.7489   5.7493   8.2708   8.2716   8.3382   8.3386
     8.5218   8.5226   9.4037   9.4040   9.7405   9.7406  10.8221  10.8221
    11.1260  11.1260  12.2286  12.2287

          k = 0.0000 0.2500-0.5000 (  6018 PWs)   bands (ev):

   -34.8013 -34.8013 -34.7897 -34.7897 -34.7787 -34.7787 -34.7662 -34.7662
   -15.6047 -15.6044 -15.5936 -15.5932 -15.5296 -15.5293 -15.5180 -15.5178
   -11.4697 -11.4695 -11.4470 -11.4469 -11.3422 -11.3420 -11.3325 -11.3304
   -11.2750 -11.2743 -11.2566 -11.2542 -11.1297 -11.1292 -11.1215 -11.1209
     3.6893   3.6896   3.7240   3.7243   4.8358   4.8362   4.8953   4.8988
     5.2565   5.2583   5.2782   5.2794   8.8158   8.8168   8.8674   8.8699
     8.9725   8.9747   9.0082   9.0086  10.2465  10.2467  10.2603  10.2607
    11.7567  11.7583  11.7947  11.7952

          k = 0.0000-0.5000-0.5000 (  6024 PWs)   bands (ev):

   -34.7950 -34.7950 -34.7850 -34.7850 -34.7838 -34.7838 -34.7721 -34.7721
   -15.5739 -15.5739 -15.5659 -15.5659 -15.5598 -15.5598 -15.5509 -15.5509
   -11.4317 -11.4317 -11.4312 -11.4312 -11.4009 -11.4009 -11.3997 -11.3997
   -11.1852 -11.1852 -11.1841 -11.1841 -11.1715 -11.1715 -11.1700 -11.1700
     4.0133   4.0133   4.0137   4.0137   4.5234   4.5234   4.5497   4.5497
     5.2657   5.2657   5.2661   5.2661   8.8997   8.8997   8.9022   8.9022
     9.6947   9.6947   9.6955   9.6955   9.7536   9.7536   9.7540   9.7540
    11.7074  11.7074  11.7123  11.7123

          k = 0.2500 0.2500 0.2500 (  6007 PWs)   bands (ev):

   -34.8077 -34.8077 -34.7837 -34.7837 -34.7772 -34.7772 -34.7674 -34.7674
   -15.5985 -15.5944 -15.5910 -15.5875 -15.5823 -15.5811 -15.4809 -15.4805
   -11.4830 -11.4810 -11.4681 -11.4654 -11.4496 -11.4489 -11.2624 -11.2615
   -11.2271 -11.2263 -11.2131 -11.2108 -11.2062 -11.2046 -11.0512 -11.0512
     3.0107   3.0108   4.3646   4.3651   4.5723   4.5731   4.8191   4.8202
     5.2961   5.2977   5.7377   5.7391   8.2410   8.2415   8.7800   8.7808
     8.9538   8.9546   9.4838   9.4840   9.6874   9.6874  10.8531  10.8532
    11.0581  11.0584  11.8659  11.8667

          k = 0.2500 0.2500-0.5000 (  6004 PWs)   bands (ev):

   -34.7986 -34.7986 -34.7874 -34.7874 -34.7814 -34.7814 -34.7685 -34.7685
   -15.5954 -15.5951 -15.5855 -15.5851 -15.5437 -15.5433 -15.5294 -15.5293
   -11.4869 -11.4866 -11.4614 -11.4609 -11.3981 -11.3974 -11.3752 -11.3745
   -11.2194 -11.2189 -11.1993 -11.1986 -11.1111 -11.1108 -11.1091 -11.1088
     3.5523   3.5530   3.9982   4.0005   4.2281   4.2307   4.7993   4.8012
     5.5178   5.5196   5.5463   5.5475   8.8368   8.8373   9.0355   9.0359
     9.2887   9.2889   9.4774   9.4775  10.3206  10.3212  10.3387  10.3394
    11.0777  11.0785  11.2633  11.2637

          k = 0.2500-0.5000-0.5000 (  6000 PWs)   bands (ev):

   -34.7949 -34.7949 -34.7850 -34.7850 -34.7837 -34.7837 -34.7721 -34.7721
   -15.5767 -15.5766 -15.5689 -15.5688 -15.5625 -15.5624 -15.5536 -15.5535
   -11.4748 -11.4747 -11.4704 -11.4702 -11.4415 -11.4412 -11.4366 -11.4361
   -11.1388 -11.1386 -11.1325 -11.1323 -11.1293 -11.1292 -11.1233 -11.1232
     3.7082   3.7093   3.7209   3.7219   4.3797   4.3812   4.3911   4.3926
     5.6965   5.6973   5.7091   5.7100   9.0819   9.0822   9.0860   9.0863
    10.0368  10.0373  10.0419  10.0424  10.1922  10.1925  10.1948  10.1950
    10.9918  10.9926  10.9941  10.9947

          k =-0.5000-0.5000-0.5000 (  6008 PWs)   bands (ev):

   -34.7949 -34.7949 -34.7849 -34.7849 -34.7837 -34.7837 -34.7720 -34.7720
   -15.5794 -15.5794 -15.5718 -15.5718 -15.5651 -15.5651 -15.5562 -15.5562
   -11.5062 -11.5062 -11.5019 -11.5019 -11.4710 -11.4710 -11.4659 -11.4659
   -11.1003 -11.1003 -11.0946 -11.0946 -11.0919 -11.0919 -11.0868 -11.0868
     3.4882   3.4882   3.5026   3.5026   4.2795   4.2795   4.2795   4.2795
     6.0210   6.0210   6.0352   6.0352   9.2962   9.2962   9.2963   9.2963
    10.4972  10.4972  10.4980  10.4980  10.5928  10.5928  10.5947  10.5947
    10.7041  10.7041  10.7057  10.7057

          k = 0.2500 0.0000 0.0000 (  6023 PWs)   bands (ev):

   -34.8200 -34.8200 -34.7825 -34.7825 -34.7700 -34.7700 -34.7635 -34.7635
   -15.6167 -15.6156 -15.6144 -15.6141 -15.5814 -15.5804 -15.4292 -15.4290
   -11.5094 -11.5077 -11.5042 -11.5034 -11.4466 -11.4454 -11.2718 -11.2714
   -11.2617 -11.2614 -11.2057 -11.2056 -11.0901 -11.0899 -11.0458 -11.0458
     2.3942   2.3945   4.5494   4.5502   4.6180   4.6183   5.0500   5.0502
     5.2541   5.2545   6.2757   6.2771   7.9447   7.9481   7.9530   7.9543
     8.0156   8.0202   9.5984   9.5986   9.8936   9.8936  10.8444  10.8445
    10.9817  10.9833  12.2396  12.2397

          k = 0.0000 0.2500 0.0000 (  6023 PWs)   bands (ev):

   -34.8201 -34.8201 -34.7809 -34.7809 -34.7728 -34.7728 -34.7622 -34.7622
   -15.6196 -15.6191 -15.6107 -15.6100 -15.5817 -15.5814 -15.4291 -15.4290
   -11.5096 -11.5093 -11.5031 -11.5028 -11.4461 -11.4459 -11.2724 -11.2719
   -11.2610 -11.2606 -11.2059 -11.2059 -11.0902 -11.0900 -11.0457 -11.0457
     2.3942   2.3945   4.5490   4.5498   4.6184   4.6187   5.0498   5.0503
     5.2543   5.2544   6.2759   6.2770   7.9450   7.9458   7.9533   7.9545
     8.0184   8.0187   9.5985   9.5986   9.8935   9.8936  10.8444  10.8446
    10.9820  10.9831  12.2396  12.2397

          k =-0.5000 0.0000 0.0000 (  5942 PWs)   bands (ev):

   -34.8022 -34.8022 -34.7987 -34.7987 -34.7700 -34.7700 -34.7652 -34.7652
   -15.6141 -15.6141 -15.6133 -15.6133 -15.5109 -15.5109 -15.5018 -15.5018
   -11.4697 -11.4697 -11.4654 -11.4654 -11.3157 -11.3157 -11.3117 -11.3117
   -11.2942 -11.2942 -11.2573 -11.2573 -11.1294 -11.1294 -11.1242 -11.1242
     3.2236   3.2236   3.8638   3.8638   5.0008   5.0008   5.0206   5.0206
     5.2824   5.2824   5.4583   5.4583   8.2217   8.2217   8.5835   8.5835
     8.5863   8.5863   9.5229   9.5229  10.3114  10.3114  10.7769  10.7769
    11.4017  11.4017  11.4452  11.4452

          k = 0.0000-0.5000 0.0000 (  5942 PWs)   bands (ev):

   -34.8049 -34.8049 -34.7944 -34.7944 -34.7739 -34.7739 -34.7628 -34.7628
   -15.6181 -15.6181 -15.6089 -15.6089 -15.5131 -15.5131 -15.5000 -15.5000
   -11.4719 -11.4719 -11.4631 -11.4631 -11.3173 -11.3173 -11.3096 -11.3096
   -11.2948 -11.2948 -11.2573 -11.2573 -11.1321 -11.1321 -11.1215 -11.1215
     3.2233   3.2233   3.8640   3.8640   5.0008   5.0008   5.0205   5.0205
     5.2821   5.2821   5.4588   5.4588   8.2215   8.2215   8.5835   8.5835
     8.5864   8.5864   9.5229   9.5229  10.3116  10.3116  10.7770  10.7770
    11.4015  11.4015  11.4456  11.4457

          k = 0.0000-0.2500 0.2500 (  6016 PWs)   bands (ev):

   -34.8133 -34.8133 -34.7810 -34.7810 -34.7772 -34.7772 -34.7645 -34.7645
   -15.6129 -15.6111 -15.5902 -15.5874 -15.5861 -15.5837 -15.4572 -15.4571
   -11.4935 -11.4921 -11.4599 -11.4580 -11.4441 -11.4439 -11.2755 -11.2753
   -11.2297 -11.2295 -11.2202 -11.2199 -11.1797 -11.1795 -11.0515 -11.0515
     2.7594   2.7599   4.6157   4.6164   4.7164   4.7194   4.7936   4.7948
     5.2195   5.2199   5.7491   5.7493   8.2706   8.2712   8.3379   8.3383
     8.5223   8.5227   9.4039   9.4039   9.7406   9.7406  10.8220  10.8221
    11.1249  11.1265  12.2285  12.2287

          k = 0.2500 0.0000-0.2500 (  6016 PWs)   bands (ev):

   -34.8132 -34.8132 -34.7829 -34.7829 -34.7748 -34.7748 -34.7652 -34.7652
   -15.6116 -15.6111 -15.5934 -15.5903 -15.5840 -15.5808 -15.4573 -15.4571
   -11.4932 -11.4922 -11.4596 -11.4586 -11.4442 -11.4432 -11.2760 -11.2753
   -11.2302 -11.2296 -11.2199 -11.2192 -11.1800 -11.1796 -11.0516 -11.0516
     2.7613   2.7616   4.6181   4.6206   4.7184   4.7204   4.7926   4.7933
     5.2158   5.2175   5.7448   5.7457   8.2696   8.2722   8.3372   8.3407
     8.5179   8.5188   9.4022   9.4026   9.7411   9.7411  10.8242  10.8244
    11.1267  11.1275  12.2282  12.2284

          k =-0.2500 0.0000-0.2500 (  6016 PWs)   bands (ev):

   -34.8132 -34.8132 -34.7829 -34.7829 -34.7748 -34.7748 -34.7652 -34.7652
   -15.6117 -15.6110 -15.5935 -15.5902 -15.5841 -15.5808 -15.4573 -15.4570
   -11.4934 -11.4923 -11.4599 -11.4589 -11.4443 -11.4433 -11.2756 -11.2748
   -11.2302 -11.2298 -11.2198 -11.2193 -11.1801 -11.1796 -11.0513 -11.0513
     2.7578   2.7581   4.6119   4.6142   4.7181   4.7201   4.7921   4.7928
     5.2217   5.2233   5.7528   5.7538   8.2702   8.2728   8.3357   8.3391
     8.5257   8.5266   9.4051   9.4056   9.7401   9.7402  10.8194  10.8196
    11.1244  11.1252  12.2289  12.2291

          k = 0.2500-0.2500 0.0000 (  6016 PWs)   bands (ev):

   -34.8133 -34.8133 -34.7830 -34.7830 -34.7744 -34.7744 -34.7654 -34.7654
   -15.6119 -15.6105 -15.5947 -15.5946 -15.5805 -15.5790 -15.4573 -15.4570
   -11.4950 -11.4935 -11.4722 -11.4710 -11.4324 -11.4316 -11.2659 -11.2652
   -11.2303 -11.2293 -11.2270 -11.2264 -11.1778 -11.1774 -11.0546 -11.0545
     2.7459   2.7462   4.6042   4.6063   4.7439   4.7466   4.8332   4.8347
     5.1026   5.1037   5.9701   5.9711   7.8282   7.8286   8.3385   8.3398
     8.7101   8.7105   9.4623   9.4624   9.7436   9.7436  10.8284  10.8287
    11.1218  11.1226  12.2412  12.2415

          k =-0.2500-0.2500 0.0000 (  6016 PWs)   bands (ev):

   -34.8132 -34.8132 -34.7834 -34.7834 -34.7742 -34.7742 -34.7653 -34.7653
   -15.6123 -15.6104 -15.5936 -15.5917 -15.5820 -15.5818 -15.4570 -15.4568
   -11.4947 -11.4934 -11.4683 -11.4674 -11.4374 -11.4365 -11.2662 -11.2656
   -11.2357 -11.2348 -11.2215 -11.2210 -11.1764 -11.1761 -11.0544 -11.0544
     2.7415   2.7418   4.6006   4.6026   4.7419   4.7446   4.8395   4.8409
     5.1032   5.1043   5.9768   5.9779   7.8263   7.8267   8.3409   8.3421
     8.7163   8.7168   9.4633   9.4634   9.7444   9.7444  10.8244  10.8247
    11.1201  11.1208  12.2413  12.2417

          k = 0.2500 0.0000 0.5000 (  6018 PWs)   bands (ev):

   -34.8013 -34.8013 -34.7897 -34.7897 -34.7787 -34.7787 -34.7662 -34.7662
   -15.6046 -15.6045 -15.5935 -15.5933 -15.5295 -15.5294 -15.5180 -15.5178
   -11.4698 -11.4696 -11.4471 -11.4469 -11.3423 -11.3415 -11.3317 -11.3308
   -11.2750 -11.2748 -11.2558 -11.2555 -11.1295 -11.1294 -11.1212 -11.1211
     3.6888   3.6891   3.7246   3.7248   4.8357   4.8361   4.8965   4.8970
     5.2544   5.2557   5.2807   5.2823   8.8163   8.8164   8.8688   8.8689
     8.9733   8.9734   9.0085   9.0086  10.2454  10.2456  10.2614  10.2616
    11.7574  11.7577  11.7951  11.7954

          k =-0.5000-0.2500 0.0000 (  6018 PWs)   bands (ev):

   -34.7990 -34.7990 -34.7945 -34.7945 -34.7742 -34.7742 -34.7683 -34.7683
   -15.6021 -15.6015 -15.5979 -15.5972 -15.5279 -15.5268 -15.5190 -15.5180
   -11.4731 -11.4727 -11.4568 -11.4564 -11.3447 -11.3445 -11.3167 -11.3166
   -11.2649 -11.2639 -11.2538 -11.2530 -11.1334 -11.1330 -11.1293 -11.1292
     3.4457   3.4458   3.9540   3.9546   4.6800   4.6812   5.0934   5.0952
     5.2813   5.2826   5.4067   5.4078   8.0145   8.0148   8.9307   8.9310
     8.9420   8.9421   9.6048   9.6048  10.1898  10.1898  10.2787  10.2787
    11.7082  11.7094  11.7305  11.7311

          k = 0.0000-0.5000 0.2500 (  6018 PWs)   bands (ev):

   -34.8010 -34.8010 -34.7906 -34.7906 -34.7778 -34.7778 -34.7665 -34.7665
   -15.6061 -15.6019 -15.5968 -15.5927 -15.5313 -15.5278 -15.5187 -15.5154
   -11.4746 -11.4716 -11.4566 -11.4526 -11.3453 -11.3433 -11.3194 -11.3185
   -11.2676 -11.2624 -11.2541 -11.2500 -11.1350 -11.1341 -11.1289 -11.1279
     3.4453   3.4453   4.0577   4.0587   4.6855   4.6856   4.9874   4.9888
     5.1494   5.1501   5.4058   5.4059   8.4395   8.4397   8.9087   8.9088
     8.9494   8.9495   9.3049   9.3050  10.1922  10.1922  10.3151  10.3152
    11.7657  11.7679  11.7893  11.7898

          k = 0.2500-0.5000 0.0000 (  6018 PWs)   bands (ev):

   -34.8010 -34.8010 -34.7906 -34.7906 -34.7777 -34.7777 -34.7665 -34.7665
   -15.6060 -15.6021 -15.5966 -15.5929 -15.5313 -15.5276 -15.5187 -15.5153
   -11.4749 -11.4710 -11.4589 -11.4543 -11.3452 -11.3441 -11.3168 -11.3158
   -11.2668 -11.2629 -11.2549 -11.2518 -11.1346 -11.1341 -11.1284 -11.1277
     3.4454   3.4456   3.9543   3.9548   4.6793   4.6818   5.0940   5.0944
     5.2803   5.2831   5.4075   5.4077   8.0144   8.0149   8.9307   8.9308
     8.9420   8.9424   9.6047   9.6048  10.1898  10.1899  10.2787  10.2788
    11.7088  11.7102  11.7292  11.7319

          k =-0.5000 0.0000 0.2500 (  6018 PWs)   bands (ev):

   -34.7990 -34.7990 -34.7945 -34.7945 -34.7742 -34.7742 -34.7683 -34.7683
   -15.6023 -15.6012 -15.5979 -15.5972 -15.5280 -15.5268 -15.5192 -15.5180
   -11.4736 -11.4725 -11.4551 -11.4544 -11.3442 -11.3439 -11.3207 -11.3174
   -11.2656 -11.2645 -11.2528 -11.2515 -11.1336 -11.1331 -11.1296 -11.1294
     3.4454   3.4456   4.0574   4.0587   4.6850   4.6861   4.9841   4.9917
     5.1453   5.1542   5.4055   5.4067   8.4397   8.4398   8.9083   8.9089
     8.9493   8.9496   9.3049   9.3051  10.1920  10.1921  10.3151  10.3152
    11.7652  11.7666  11.7890  11.7904

          k =-0.5000 0.0000 0.5000 (  6024 PWs)   bands (ev):

   -34.7950 -34.7950 -34.7850 -34.7850 -34.7838 -34.7838 -34.7721 -34.7721
   -15.5737 -15.5737 -15.5662 -15.5662 -15.5598 -15.5598 -15.5508 -15.5508
   -11.4344 -11.4344 -11.4289 -11.4289 -11.4029 -11.4029 -11.3970 -11.3970
   -11.1888 -11.1888 -11.1815 -11.1815 -11.1739 -11.1739 -11.1667 -11.1667
     4.0072   4.0072   4.0198   4.0198   4.5360   4.5360   4.5364   4.5364
     5.2584   5.2584   5.2740   5.2740   8.9007   8.9007   8.9016   8.9016
     9.6945   9.6945   9.6954   9.6954   9.7520   9.7520   9.7557   9.7557
    11.7099  11.7129  11.7157  11.7202

          k =-0.5000 0.5000 0.0000 (  6024 PWs)   bands (ev):

   -34.7950 -34.7950 -34.7852 -34.7852 -34.7836 -34.7836 -34.7721 -34.7721
   -15.5743 -15.5743 -15.5667 -15.5667 -15.5596 -15.5596 -15.5498 -15.5498
   -11.4354 -11.4354 -11.4272 -11.4272 -11.4196 -11.4196 -11.3822 -11.3822
   -11.1874 -11.1874 -11.1812 -11.1812 -11.1758 -11.1758 -11.1656 -11.1656
     3.9860   3.9860   4.0385   4.0385   4.0573   4.0573   5.2248   5.2248
     5.2877   5.2877   5.3014   5.3014   7.8510   7.8510   9.6502   9.6502
     9.6639   9.6639   9.6838   9.6838   9.7188   9.7188   9.8191   9.8191
    11.6802  11.6808  11.7086  11.7108

          k =-0.2500-0.2500 0.2500 (  6007 PWs)   bands (ev):

   -34.8077 -34.8077 -34.7837 -34.7837 -34.7772 -34.7772 -34.7674 -34.7674
   -15.5983 -15.5944 -15.5910 -15.5874 -15.5824 -15.5812 -15.4809 -15.4806
   -11.4831 -11.4806 -11.4679 -11.4649 -11.4497 -11.4488 -11.2625 -11.2617
   -11.2273 -11.2268 -11.2131 -11.2107 -11.2063 -11.2045 -11.0514 -11.0514
     3.0147   3.0153   4.3699   4.3725   4.5669   4.5692   4.8234   4.8246
     5.2889   5.2905   5.7306   5.7313   8.2416   8.2420   8.7767   8.7774
     8.9514   8.9518   9.4838   9.4840   9.6882   9.6883  10.8544  10.8549
    11.0595  11.0602  11.8635  11.8655

          k =-0.2500 0.2500-0.2500 (  6007 PWs)   bands (ev):

   -34.8078 -34.8078 -34.7834 -34.7834 -34.7772 -34.7772 -34.7676 -34.7676
   -15.5990 -15.5964 -15.5911 -15.5877 -15.5815 -15.5784 -15.4811 -15.4808
   -11.4866 -11.4844 -11.4685 -11.4657 -11.4449 -11.4443 -11.2615 -11.2607
   -11.2231 -11.2225 -11.2142 -11.2127 -11.2103 -11.2087 -11.0513 -11.0513
     3.0163   3.0170   4.3579   4.3605   4.5784   4.5806   4.8173   4.8186
     5.2983   5.2998   5.7266   5.7272   8.2410   8.2415   8.7793   8.7799
     8.9497   8.9502   9.4837   9.4840   9.6872   9.6872  10.8542  10.8547
    11.0592  11.0600  11.8647  11.8668

          k = 0.2500-0.2500-0.2500 (  6007 PWs)   bands (ev):

   -34.8078 -34.8078 -34.7834 -34.7834 -34.7772 -34.7772 -34.7676 -34.7676
   -15.5989 -15.5964 -15.5911 -15.5877 -15.5816 -15.5784 -15.4812 -15.4809
   -11.4861 -11.4844 -11.4681 -11.4655 -11.4448 -11.4443 -11.2617 -11.2608
   -11.2234 -11.2226 -11.2143 -11.2126 -11.2104 -11.2087 -11.0516 -11.0515
     3.0208   3.0210   4.3658   4.3662   4.5745   4.5754   4.8217   4.8229
     5.2903   5.2919   5.7187   5.7202   8.2416   8.2421   8.7761   8.7769
     8.9469   8.9476   9.4837   9.4839   9.6880   9.6881  10.8560  10.8562
    11.0613  11.0615  11.8642  11.8649

          k =-0.2500 0.2500 0.5000 (  6004 PWs)   bands (ev):

   -34.7989 -34.7989 -34.7870 -34.7870 -34.7811 -34.7811 -34.7688 -34.7688
   -15.5973 -15.5971 -15.5834 -15.5830 -15.5420 -15.5416 -15.5313 -15.5311
   -11.4908 -11.4906 -11.4570 -11.4564 -11.3969 -11.3960 -11.3765 -11.3754
   -11.2156 -11.2151 -11.2032 -11.2024 -11.1155 -11.1152 -11.1056 -11.1052
     3.5683   3.5690   3.9919   3.9946   4.2207   4.2236   4.8039   4.8060
     5.5205   5.5230   5.5318   5.5324   8.8347   8.8353   9.0361   9.0366
     9.2868   9.2870   9.4782   9.4783  10.3176  10.3182  10.3437  10.3443
    11.0777  11.0788  11.2634  11.2639

          k =-0.5000-0.2500 0.2500 (  6004 PWs)   bands (ev):

   -34.7971 -34.7971 -34.7916 -34.7916 -34.7771 -34.7771 -34.7700 -34.7700
   -15.5938 -15.5923 -15.5898 -15.5884 -15.5404 -15.5386 -15.5325 -15.5309
   -11.4853 -11.4841 -11.4727 -11.4715 -11.3934 -11.3927 -11.3718 -11.3695
   -11.2088 -11.2082 -11.2037 -11.2031 -11.1142 -11.1140 -11.1122 -11.1120
     3.5299   3.5306   3.8603   3.8608   4.4552   4.4559   4.7840   4.7845
     5.5313   5.5324   5.5522   5.5534   8.4263   8.4264   9.2419   9.2421
     9.3299   9.3300   9.5312   9.5313  10.3201  10.3205  10.3572  10.3574
    11.1081  11.1083  11.1970  11.1985

          k = 0.5000-0.2500-0.2500 (  6004 PWs)   bands (ev):

   -34.7971 -34.7971 -34.7916 -34.7916 -34.7771 -34.7771 -34.7700 -34.7700
   -15.5937 -15.5923 -15.5898 -15.5884 -15.5403 -15.5387 -15.5325 -15.5310
   -11.4849 -11.4845 -11.4727 -11.4715 -11.3934 -11.3928 -11.3717 -11.3696
   -11.2088 -11.2082 -11.2038 -11.2031 -11.1144 -11.1138 -11.1123 -11.1120
     3.5301   3.5302   3.8602   3.8613   4.4551   4.4563   4.7834   4.7851
     5.5288   5.5310   5.5542   5.5548   8.4262   8.4264   9.2418   9.2423
     9.3298   9.3299   9.5311   9.5313  10.3200  10.3200  10.3575  10.3575
    11.1086  11.1087  11.1980  11.1981

          k =-0.2500-0.5000 0.2500 (  6004 PWs)   bands (ev):

   -34.7985 -34.7985 -34.7882 -34.7882 -34.7802 -34.7802 -34.7689 -34.7689
   -15.5972 -15.5933 -15.5879 -15.5842 -15.5437 -15.5399 -15.5320 -15.5285
   -11.4861 -11.4830 -11.4739 -11.4698 -11.3949 -11.3914 -11.3725 -11.3691
   -11.2108 -11.2069 -11.2048 -11.2012 -11.1161 -11.1156 -11.1110 -11.1105
     3.5332   3.5340   3.8629   3.8633   4.4519   4.4530   4.7850   4.7864
     5.5276   5.5291   5.5488   5.5498   8.4265   8.4271   9.2411   9.2414
     9.3293   9.3296   9.5314   9.5316  10.3217  10.3222  10.3565  10.3569
    11.1086  11.1092  11.1974  11.1979

          k =-0.2500 0.5000-0.2500 (  6004 PWs)   bands (ev):

   -34.7985 -34.7985 -34.7882 -34.7882 -34.7802 -34.7802 -34.7689 -34.7689
   -15.5973 -15.5933 -15.5881 -15.5842 -15.5438 -15.5398 -15.5320 -15.5283
   -11.4864 -11.4833 -11.4742 -11.4701 -11.3950 -11.3914 -11.3722 -11.3688
   -11.2106 -11.2067 -11.2050 -11.2014 -11.1158 -11.1154 -11.1108 -11.1103
     3.5261   3.5269   3.8584   3.8586   4.4586   4.4596   4.7820   4.7834
     5.5311   5.5323   5.5588   5.5604   8.4254   8.4260   9.2427   9.2429
     9.3302   9.3305   9.5308   9.5310  10.3182  10.3185  10.3580  10.3583
    11.1081  11.1087  11.1979  11.1984

          k =-0.5000 0.2500 0.5000 (  6000 PWs)   bands (ev):

   -34.7949 -34.7949 -34.7850 -34.7850 -34.7837 -34.7837 -34.7721 -34.7721
   -15.5766 -15.5765 -15.5690 -15.5690 -15.5624 -15.5624 -15.5535 -15.5534
   -11.4755 -11.4748 -11.4703 -11.4699 -11.4418 -11.4415 -11.4363 -11.4355
   -11.1399 -11.1390 -11.1325 -11.1319 -11.1297 -11.1291 -11.1230 -11.1221
     3.7077   3.7084   3.7217   3.7224   4.3857   4.3858   4.3863   4.3864
     5.6955   5.6966   5.7100   5.7110   9.0825   9.0825   9.0858   9.0858
    10.0372  10.0379  10.0413  10.0415  10.1923  10.1924  10.1948  10.1950
    10.9923  10.9932  10.9938  10.9944

          k =-0.5000 0.5000 0.2500 (  6000 PWs)   bands (ev):

   -34.7949 -34.7949 -34.7850 -34.7850 -34.7836 -34.7836 -34.7721 -34.7721
   -15.5771 -15.5764 -15.5703 -15.5677 -15.5641 -15.5611 -15.5535 -15.5525
   -11.4761 -11.4745 -11.4705 -11.4704 -11.4495 -11.4482 -11.4307 -11.4269
   -11.1394 -11.1385 -11.1327 -11.1322 -11.1293 -11.1285 -11.1234 -11.1223
     3.7129   3.7145   3.7279   3.7295   4.0382   4.0396   4.8061   4.8073
     5.7043   5.7047   5.7160   5.7163   8.4474   8.4475   9.5993   9.5995
    10.0398  10.0399  10.0590  10.0592  10.0955  10.0955  10.2567  10.2568
    10.9240  10.9247  10.9277  10.9286

     the Fermi energy is     9.3877 ev

!    total energy              =   -2245.89069241 Ry
     Harris-Foulkes estimate   =   -2245.89069248 Ry
     estimated scf accuracy    <       0.00000008 Ry

     total all-electron energy =    -90250.234078 Ry

     The total energy is the sum of the following terms:

     one-electron contribution =     -52.56959893 Ry
     hartree contribution      =      45.25908439 Ry
     xc contribution           =    -255.66591684 Ry
     ewald contribution        =    -234.85038508 Ry
     one-center paw contrib.   =   -1748.06033118 Ry
     smearing contrib. (-TS)   =      -0.00354476 Ry

     convergence has been achieved in   8 iterations

     Writing output data file 2323.save
 
     init_run     :      3.08s CPU      3.89s WALL (       1 calls)
     electrons    :     44.17s CPU     46.61s WALL (       1 calls)

     Called by init_run:
     wfcinit      :      2.78s CPU      3.10s WALL (       1 calls)
     potinit      :      0.13s CPU      0.22s WALL (       1 calls)

     Called by electrons:
     c_bands      :     37.00s CPU     38.46s WALL (       8 calls)
     sum_band     :      5.59s CPU      5.88s WALL (       8 calls)
     v_of_rho     :      0.03s CPU      0.05s WALL (       9 calls)
     newd         :      0.62s CPU      0.70s WALL (       9 calls)
     PAW_pot      :      1.02s CPU      1.11s WALL (       9 calls)
     mix_rho      :      0.06s CPU      0.08s WALL (       8 calls)

     Called by c_bands:
     init_us_2    :      0.26s CPU      0.28s WALL (     612 calls)
     cegterg      :     34.95s CPU     36.30s WALL (     288 calls)

     Called by sum_band:
     sum_band:bec :      1.40s CPU      1.41s WALL (     288 calls)
     addusdens    :      0.19s CPU      0.23s WALL (       8 calls)

     Called by *egterg:
     h_psi        :     22.32s CPU     23.55s WALL (    1210 calls)
     s_psi        :      1.84s CPU      1.85s WALL (    1210 calls)
     g_psi        :      0.04s CPU      0.04s WALL (     886 calls)
     cdiaghg      :      7.87s CPU      8.12s WALL (    1174 calls)

     Called by h_psi:
     h_psi:pot    :     21.99s CPU     23.21s WALL (    1210 calls)
     h_psi:calbec :      1.36s CPU      1.54s WALL (    1210 calls)
     vloc_psi     :     18.70s CPU     19.72s WALL (    1210 calls)
     add_vuspsi   :      1.91s CPU      1.94s WALL (    1210 calls)

     General routines
     calbec       :      1.71s CPU      1.95s WALL (    1498 calls)
     fft          :      0.04s CPU      0.18s WALL (     167 calls)
     fftw         :     20.35s CPU     21.45s WALL (  227520 calls)
     davcio       :      0.00s CPU      0.01s WALL (      36 calls)
 
     Parallel routines
     fft_scatter  :      9.74s CPU     10.30s WALL (  227687 calls)
 
     PWSCF        :  0m48.26s CPU     2m22.49s WALL

 
   This run was terminated on:  10:56:42  16Nov2022            

=------------------------------------------------------------------------------=
   JOB DONE.
=------------------------------------------------------------------------------=
Removing 2323 from /home/shaharpit/tmp
