
     Program PWSCF v.6.1 (svn rev. 13369) starts on 16Nov2022 at 10:54:15 

     This program is part of the open-source Quantum ESPRESSO suite
     for quantum simulation of materials; please cite
         "P. Giannozzi et al., J. Phys.:Condens. Matter 21 395502 (2009);
          URL http://www.quantum-espresso.org", 
     in publications or presentations arising from this work. More details at
     http://www.quantum-espresso.org/quote

     Parallel version (MPI), running on    32 processors
     R & G space division:  proc/nbgrp/npool/nimage =      32
     Reading input from ./fcc_75_1.1.in
Warning: card &IONS ignored
Warning: card 	ION_DYNAMICS='BFGS', ignored
Warning: card / ignored
Warning: card &CELL ignored
Warning: card / ignored

     Current dimensions of program PWSCF are:
     Max number of different atomic species (ntypx) = 10
     Max number of k-points (npk) =  40000
     Max angular momentum in pseudopotentials (lmaxx) =  3
               file Gd.rel-pbe-spdn-kjpaw_psl.1.0.0.UPF: wavefunction(s)  5P 5P renormalized
               file H.pbe-kjpaw_psl.0.1.UPF: wavefunction(s)  1S renormalized

     Subspace diagonalization in iterative solution of the eigenvalue problem:
     a serial algorithm will be used

 
     Parallelization info
     --------------------
     sticks:   dense  smooth     PW     G-vecs:    dense   smooth      PW
     Min          53      53     15                 1653     1653     255
     Max          54      54     16                 1656     1656     260
     Sum        1701    1701    489                52923    52923    8217
 


     bravais-lattice index     =            0
     lattice parameter (alat)  =      10.3447  a.u.
     unit-cell volume          =    1107.0280 (a.u.)^3
     number of atoms/cell      =           10
     number of atomic types    =            2
     number of electrons       =        50.00
     number of Kohn-Sham states=           60
     kinetic-energy cutoff     =      50.0000  Ry
     charge density cutoff     =     200.0000  Ry
     convergence threshold     =      1.0E-06
     mixing beta               =       0.7000
     number of iterations used =            8  plain     mixing
     Exchange-correlation      =  SLA  PW   PBX  PBC ( 1  4  3  4 0 0)
     Non magnetic calculation with spin-orbit


     celldm(1)=  10.344739  celldm(2)=   0.000000  celldm(3)=   0.000000
     celldm(4)=   0.000000  celldm(5)=   0.000000  celldm(6)=   0.000000

     crystal axes: (cart. coord. in units of alat)
               a(1) = (   1.000000   0.000000   0.000000 )  
               a(2) = (   0.000000   1.000000   0.000000 )  
               a(3) = (   0.000000   0.000000   1.000000 )  

     reciprocal axes: (cart. coord. in units 2 pi/alat)
               b(1) = (  1.000000  0.000000  0.000000 )  
               b(2) = (  0.000000  1.000000  0.000000 )  
               b(3) = (  0.000000  0.000000  1.000000 )  


     PseudoPot. # 1 for Gd read from file:
     /home/shaharpit/MeamGdH/dft/qe_potentials/Gd.rel-pbe-spdn-kjpaw_psl.1.0.0.UPF
     MD5 check sum: cf50ec46d1536b4a0251694df1946a53
     Pseudo is Projector augmented-wave + core cor, Zval = 11.0
     Generated using "atomic" code by A. Dal Corso  v.6.2.2
     Shape of augmentation charge: PSQ
     Using radial grid of 1263 points, 10 beta functions with: 
                l(1) =   0
                l(2) =   0
                l(3) =   1
                l(4) =   1
                l(5) =   1
                l(6) =   1
                l(7) =   2
                l(8) =   2
                l(9) =   2
               l(10) =   2
     Q(r) pseudized with 0 coefficients 


     PseudoPot. # 2 for  H read from file:
     /home/shaharpit/MeamGdH/dft/qe_potentials/H.pbe-kjpaw_psl.0.1.UPF
     MD5 check sum: fbb168fef676c0aaadbafd73f5b1efa8
     Pseudo is Projector augmented-wave, Zval =  1.0
     Generated using "atomic" code by A. Dal Corso  v.5.0.2 svn rev. 9415
     Shape of augmentation charge: PSQ
     Using radial grid of  929 points,  2 beta functions with: 
                l(1) =   0
                l(2) =   0
     Q(r) pseudized with 0 coefficients 


     atomic species   valence    mass     pseudopotential
        Gd            11.00   157.25000     Gd( 1.00)
        H              1.00     1.00794      H( 1.00)

     No symmetry found



   Cartesian axes

     site n.     atom                  positions (alat units)
         1           Gd  tau(   1) = (   0.0000000   0.0000000   0.0000000  )
         2           Gd  tau(   2) = (   0.0000000   0.5000000   0.5000000  )
         3           Gd  tau(   3) = (   0.5000000   0.0000000   0.5000000  )
         4           Gd  tau(   4) = (   0.5000000   0.5000000   0.0000000  )
         5           H   tau(   5) = (   0.2500000   0.7539000   0.7539000  )
         6           H   tau(   6) = (   0.2500000   0.7501000   0.2500000  )
         7           H   tau(   7) = (   0.2500000   0.2500000   0.2500000  )
         8           H   tau(   8) = (   0.2500000   0.2500000   0.7501000  )
         9           H   tau(   9) = (   0.7501000   0.2500000   0.7501000  )
        10           H   tau(  10) = (   0.7501000   0.2500000   0.2500000  )

     number of k points=    36  gaussian smearing, width (Ry)=  0.0100
                       cart. coord. in units 2pi/alat
        k(    1) = (   0.0000000   0.0000000   0.0000000), wk =   0.0156250
        k(    2) = (   0.0000000   0.0000000   0.2500000), wk =   0.0312500
        k(    3) = (   0.0000000   0.0000000  -0.5000000), wk =   0.0156250
        k(    4) = (   0.0000000   0.2500000   0.2500000), wk =   0.0312500
        k(    5) = (   0.0000000   0.2500000  -0.5000000), wk =   0.0312500
        k(    6) = (   0.0000000  -0.5000000  -0.5000000), wk =   0.0156250
        k(    7) = (   0.2500000   0.2500000   0.2500000), wk =   0.0312500
        k(    8) = (   0.2500000   0.2500000  -0.5000000), wk =   0.0312500
        k(    9) = (   0.2500000  -0.5000000  -0.5000000), wk =   0.0312500
        k(   10) = (  -0.5000000  -0.5000000  -0.5000000), wk =   0.0156250
        k(   11) = (   0.2500000   0.0000000   0.0000000), wk =   0.0312500
        k(   12) = (   0.0000000   0.2500000   0.0000000), wk =   0.0312500
        k(   13) = (  -0.5000000   0.0000000   0.0000000), wk =   0.0156250
        k(   14) = (   0.0000000  -0.5000000   0.0000000), wk =   0.0156250
        k(   15) = (   0.0000000  -0.2500000   0.2500000), wk =   0.0312500
        k(   16) = (   0.2500000   0.0000000  -0.2500000), wk =   0.0312500
        k(   17) = (  -0.2500000   0.0000000  -0.2500000), wk =   0.0312500
        k(   18) = (   0.2500000  -0.2500000   0.0000000), wk =   0.0312500
        k(   19) = (  -0.2500000  -0.2500000   0.0000000), wk =   0.0312500
        k(   20) = (   0.2500000   0.0000000   0.5000000), wk =   0.0312500
        k(   21) = (  -0.5000000  -0.2500000   0.0000000), wk =   0.0312500
        k(   22) = (   0.0000000  -0.5000000   0.2500000), wk =   0.0312500
        k(   23) = (   0.2500000  -0.5000000   0.0000000), wk =   0.0312500
        k(   24) = (  -0.5000000   0.0000000   0.2500000), wk =   0.0312500
        k(   25) = (  -0.5000000   0.0000000   0.5000000), wk =   0.0156250
        k(   26) = (  -0.5000000   0.5000000   0.0000000), wk =   0.0156250
        k(   27) = (  -0.2500000  -0.2500000   0.2500000), wk =   0.0312500
        k(   28) = (  -0.2500000   0.2500000  -0.2500000), wk =   0.0312500
        k(   29) = (   0.2500000  -0.2500000  -0.2500000), wk =   0.0312500
        k(   30) = (  -0.2500000   0.2500000   0.5000000), wk =   0.0312500
        k(   31) = (  -0.5000000  -0.2500000   0.2500000), wk =   0.0312500
        k(   32) = (   0.5000000  -0.2500000  -0.2500000), wk =   0.0312500
        k(   33) = (  -0.2500000  -0.5000000   0.2500000), wk =   0.0312500
        k(   34) = (  -0.2500000   0.5000000  -0.2500000), wk =   0.0312500
        k(   35) = (  -0.5000000   0.2500000   0.5000000), wk =   0.0312500
        k(   36) = (  -0.5000000   0.5000000   0.2500000), wk =   0.0312500

     Dense  grid:    52923 G-vectors     FFT dimensions: (  48,  48,  48)

     Estimated max dynamical RAM per process >      22.51MB

     Estimated total allocated dynamical RAM >     720.48MB

     Check: negative/imaginary core charge=   -0.000002    0.000000

     Initial potential from superposition of free atoms

     starting charge   49.92376, renormalised to   50.00000
     Starting wfc are  116 randomized atomic wfcs
     Checking if some PAW data can be deallocated... 

     total cpu time spent up to now is        5.4 secs

     per-process dynamical memory:    64.1 Mb

     Self-consistent Calculation

     iteration #  1     ecut=    50.00 Ry     beta=0.70
     Davidson diagonalization with overlap
     ethr =  1.00E-02,  avg # of iterations =  2.0

     Threshold (ethr) on eigenvalues was too large:
     Diagonalizing with lowered threshold

     Davidson diagonalization with overlap
     ethr =  9.85E-04,  avg # of iterations =  1.0

     total cpu time spent up to now is       13.1 secs

     total energy              =   -2245.73928057 Ry
     Harris-Foulkes estimate   =   -2246.05017533 Ry
     estimated scf accuracy    <       0.49857990 Ry

     iteration #  2     ecut=    50.00 Ry     beta=0.70
     Davidson diagonalization with overlap
     ethr =  9.97E-04,  avg # of iterations =  3.0

     total cpu time spent up to now is       17.7 secs

     total energy              =   -2245.81730062 Ry
     Harris-Foulkes estimate   =   -2245.90356448 Ry
     estimated scf accuracy    <       0.15104100 Ry

     iteration #  3     ecut=    50.00 Ry     beta=0.70
     Davidson diagonalization with overlap
     ethr =  3.02E-04,  avg # of iterations =  2.8

     total cpu time spent up to now is       22.5 secs

     total energy              =   -2245.85672476 Ry
     Harris-Foulkes estimate   =   -2245.87378172 Ry
     estimated scf accuracy    <       0.03763056 Ry

     iteration #  4     ecut=    50.00 Ry     beta=0.70
     Davidson diagonalization with overlap
     ethr =  7.53E-05,  avg # of iterations =  2.1

     total cpu time spent up to now is       26.5 secs

     total energy              =   -2245.86453979 Ry
     Harris-Foulkes estimate   =   -2245.86458498 Ry
     estimated scf accuracy    <       0.00033217 Ry

     iteration #  5     ecut=    50.00 Ry     beta=0.70
     Davidson diagonalization with overlap
     ethr =  6.64E-07,  avg # of iterations =  6.2

     total cpu time spent up to now is       34.0 secs

     total energy              =   -2245.86472130 Ry
     Harris-Foulkes estimate   =   -2245.86473741 Ry
     estimated scf accuracy    <       0.00004059 Ry

     iteration #  6     ecut=    50.00 Ry     beta=0.70
     Davidson diagonalization with overlap
     ethr =  8.12E-08,  avg # of iterations =  2.1

     total cpu time spent up to now is       38.5 secs

     total energy              =   -2245.86472953 Ry
     Harris-Foulkes estimate   =   -2245.86472895 Ry
     estimated scf accuracy    <       0.00000175 Ry

     iteration #  7     ecut=    50.00 Ry     beta=0.70
     Davidson diagonalization with overlap
     ethr =  3.50E-09,  avg # of iterations =  4.0

     total cpu time spent up to now is       43.7 secs

     total energy              =   -2245.86472966 Ry
     Harris-Foulkes estimate   =   -2245.86473045 Ry
     estimated scf accuracy    <       0.00000190 Ry

     iteration #  8     ecut=    50.00 Ry     beta=0.70
     Davidson diagonalization with overlap
     ethr =  3.50E-09,  avg # of iterations =  2.9

     total cpu time spent up to now is       48.2 secs

     End of self-consistent calculation

          k = 0.0000 0.0000 0.0000 (  6619 PWs)   bands (ev):

   -36.1598 -36.1598 -36.1289 -36.1289 -36.1224 -36.1224 -36.1131 -36.1131
   -16.9130 -16.9130 -16.9056 -16.9056 -16.8969 -16.8969 -16.7542 -16.7542
   -12.7578 -12.7578 -12.7478 -12.7478 -12.7174 -12.7174 -12.5447 -12.5447
   -12.5320 -12.5320 -12.5263 -12.5263 -12.3791 -12.3791 -12.3631 -12.3631
     1.2361   1.2361   3.5787   3.5787   3.8480   3.8480   4.1139   4.1139
     4.7434   4.7434   5.7190   5.7190   6.7127   6.7127   6.7163   6.7163
     6.7179   6.7179   8.4657   8.4657   9.4719   9.4719   9.4806   9.4806
     9.6406   9.6407  10.5495  10.5495

          k = 0.0000 0.0000 0.2500 (  6595 PWs)   bands (ev):

   -36.1550 -36.1550 -36.1303 -36.1303 -36.1250 -36.1250 -36.1139 -36.1139
   -16.9113 -16.9106 -16.8998 -16.8992 -16.8833 -16.8823 -16.7766 -16.7765
   -12.7353 -12.7347 -12.7012 -12.7005 -12.6983 -12.6970 -12.5707 -12.5704
   -12.5551 -12.5546 -12.5037 -12.5035 -12.4373 -12.4371 -12.3872 -12.3872
     1.6146   1.6147   3.7241   3.7250   3.7344   3.7354   4.0237   4.0239
     4.5557   4.5570   5.0252   5.0255   7.0959   7.0963   7.0986   7.0994
     7.4530   7.4531   8.2581   8.2583   8.9345   8.9346   9.7109   9.7109
     9.8449   9.8458  10.9778  10.9779

          k = 0.0000 0.0000-0.5000 (  6568 PWs)   bands (ev):

   -36.1472 -36.1472 -36.1359 -36.1359 -36.1266 -36.1266 -36.1144 -36.1144
   -16.9098 -16.9098 -16.8993 -16.8993 -16.8359 -16.8359 -16.8250 -16.8250
   -12.6933 -12.6933 -12.6839 -12.6839 -12.6039 -12.6039 -12.5952 -12.5952
   -12.5738 -12.5738 -12.5649 -12.5649 -12.4506 -12.4506 -12.4400 -12.4400
     2.6063   2.6063   2.6207   2.6207   4.1228   4.1228   4.1245   4.1245
     4.4500   4.4500   4.4617   4.4617   7.6731   7.6731   7.6750   7.6750
     7.9501   7.9501   7.9520   7.9520   9.4913   9.4913   9.5015   9.5015
    10.1757  10.1758  10.1800  10.1800

          k = 0.0000 0.2500 0.2500 (  6624 PWs)   bands (ev):

   -36.1510 -36.1510 -36.1308 -36.1308 -36.1269 -36.1269 -36.1154 -36.1154
   -16.9055 -16.9042 -16.8883 -16.8860 -16.8847 -16.8826 -16.7958 -16.7955
   -12.7184 -12.7171 -12.6955 -12.6933 -12.6783 -12.6778 -12.5650 -12.5642
   -12.5300 -12.5297 -12.5217 -12.5214 -12.4911 -12.4907 -12.4008 -12.4007
     1.9289   1.9291   3.7369   3.7374   3.8379   3.8383   3.8999   3.9013
     4.2375   4.2381   4.8617   4.8620   7.3362   7.3369   7.4371   7.4372
     7.6191   7.6199   8.3801   8.3803   8.7255   8.7256   9.6994   9.6994
     9.9881   9.9881  10.9801  10.9803

          k = 0.0000 0.2500-0.5000 (  6610 PWs)   bands (ev):

   -36.1450 -36.1450 -36.1337 -36.1337 -36.1288 -36.1288 -36.1165 -36.1165
   -16.9001 -16.9000 -16.8894 -16.8891 -16.8474 -16.8472 -16.8361 -16.8360
   -12.7015 -12.7014 -12.6788 -12.6786 -12.6122 -12.6121 -12.6000 -12.5977
   -12.5661 -12.5655 -12.5465 -12.5441 -12.4591 -12.4587 -12.4475 -12.4471
     2.7818   2.7821   2.8099   2.8102   3.9229   3.9234   3.9774   3.9801
     4.3852   4.3864   4.4082   4.4092   7.8404   7.8411   7.8842   7.8856
     8.0336   8.0347   8.0609   8.0611   9.2017   9.2018   9.2164   9.2168
    10.5245  10.5256  10.5621  10.5625

          k = 0.0000-0.5000-0.5000 (  6632 PWs)   bands (ev):

   -36.1418 -36.1418 -36.1320 -36.1320 -36.1309 -36.1309 -36.1194 -36.1194
   -16.8794 -16.8794 -16.8711 -16.8711 -16.8671 -16.8671 -16.8577 -16.8577
   -12.6746 -12.6746 -12.6743 -12.6743 -12.6478 -12.6478 -12.6465 -12.6465
   -12.5010 -12.5010 -12.4997 -12.4997 -12.4846 -12.4846 -12.4829 -12.4829
     3.0954   3.0954   3.0958   3.0958   3.6099   3.6099   3.6367   3.6367
     4.3817   4.3817   4.3819   4.3819   7.8848   7.8848   7.8873   7.8873
     8.6902   8.6902   8.6912   8.6912   8.7520   8.7520   8.7529   8.7529
    10.5139  10.5154  10.5193  10.5229

          k = 0.2500 0.2500 0.2500 (  6595 PWs)   bands (ev):

   -36.1478 -36.1478 -36.1325 -36.1325 -36.1269 -36.1269 -36.1169 -36.1169
   -16.8957 -16.8930 -16.8888 -16.8864 -16.8810 -16.8798 -16.8118 -16.8114
   -12.7117 -12.7092 -12.7014 -12.6982 -12.6827 -12.6823 -12.5516 -12.5506
   -12.5325 -12.5317 -12.5159 -12.5140 -12.5089 -12.5077 -12.4014 -12.4013
     2.1676   2.1678   3.5154   3.5159   3.6911   3.6915   3.9217   3.9228
     4.3101   4.3113   4.8139   4.8149   7.2558   7.2562   7.8462   7.8469
     8.0202   8.0208   8.4831   8.4833   8.6663   8.6663   9.7296   9.7298
     9.9340   9.9342  10.6360  10.6368

          k = 0.2500 0.2500-0.5000 (  6608 PWs)   bands (ev):

   -36.1435 -36.1435 -36.1325 -36.1325 -36.1303 -36.1303 -36.1177 -36.1177
   -16.8931 -16.8930 -16.8836 -16.8833 -16.8567 -16.8564 -16.8437 -16.8436
   -12.7142 -12.7140 -12.6913 -12.6910 -12.6525 -12.6522 -12.6297 -12.6291
   -12.5269 -12.5265 -12.5041 -12.5035 -12.4460 -12.4458 -12.4401 -12.4398
     2.7062   2.7068   3.0828   3.0841   3.3950   3.3964   3.9538   3.9557
     4.4933   4.4953   4.6006   4.6012   7.8146   7.8150   7.9924   7.9928
     8.3236   8.3238   8.5091   8.5092   9.2692   9.2695   9.2907   9.2912
     9.9358   9.9369  10.1147  10.1149

          k = 0.2500-0.5000-0.5000 (  6572 PWs)   bands (ev):

   -36.1418 -36.1418 -36.1319 -36.1319 -36.1309 -36.1309 -36.1194 -36.1194
   -16.8807 -16.8807 -16.8726 -16.8725 -16.8684 -16.8684 -16.8590 -16.8589
   -12.7080 -12.7079 -12.7026 -12.7025 -12.6790 -12.6787 -12.6735 -12.6731
   -12.4694 -12.4692 -12.4621 -12.4620 -12.4554 -12.4554 -12.4488 -12.4488
     2.9011   2.9020   2.9131   2.9139   3.5119   3.5133   3.5255   3.5269
     4.6569   4.6577   4.6693   4.6702   7.9908   7.9912   7.9947   7.9950
     9.0054   9.0060   9.0102   9.0108   9.1593   9.1595   9.1628   9.1629
     9.8722   9.8730   9.8751   9.8759

          k =-0.5000-0.5000-0.5000 (  6704 PWs)   bands (ev):

   -36.1418 -36.1418 -36.1319 -36.1319 -36.1308 -36.1308 -36.1193 -36.1193
   -16.8821 -16.8821 -16.8740 -16.8740 -16.8697 -16.8697 -16.8603 -16.8603
   -12.7320 -12.7320 -12.7262 -12.7262 -12.7013 -12.7013 -12.6954 -12.6954
   -12.4426 -12.4426 -12.4341 -12.4341 -12.4307 -12.4307 -12.4230 -12.4230
     2.7480   2.7480   2.7622   2.7622   3.4430   3.4430   3.4431   3.4431
     4.8792   4.8792   4.8938   4.8938   8.1315   8.1315   8.1317   8.1317
     9.4153   9.4153   9.4160   9.4160   9.5092   9.5092   9.5109   9.5109
     9.6212   9.6212   9.6225   9.6225

          k = 0.2500 0.0000 0.0000 (  6595 PWs)   bands (ev):

   -36.1548 -36.1548 -36.1322 -36.1322 -36.1224 -36.1224 -36.1148 -36.1148
   -16.9079 -16.9070 -16.9053 -16.9051 -16.8811 -16.8802 -16.7765 -16.7764
   -12.7315 -12.7294 -12.7272 -12.7258 -12.6805 -12.6794 -12.5615 -12.5612
   -12.5509 -12.5505 -12.5135 -12.5133 -12.4271 -12.4270 -12.3976 -12.3976
     1.5994   1.5996   3.7303   3.7304   3.7869   3.7874   4.1679   4.1680
     4.2295   4.2298   5.3089   5.3100   7.0667   7.0713   7.0917   7.0927
     7.1079   7.1133   8.5220   8.5221   8.8698   8.8699   9.7169   9.7170
     9.8507   9.8524  10.9972  10.9974

          k = 0.0000 0.2500 0.0000 (  6595 PWs)   bands (ev):

   -36.1550 -36.1550 -36.1307 -36.1307 -36.1245 -36.1245 -36.1140 -36.1140
   -16.9106 -16.9102 -16.9016 -16.9010 -16.8818 -16.8815 -16.7764 -16.7764
   -12.7318 -12.7315 -12.7254 -12.7251 -12.6800 -12.6799 -12.5621 -12.5617
   -12.5500 -12.5498 -12.5138 -12.5138 -12.4272 -12.4270 -12.3975 -12.3974
     1.5993   1.5996   3.7297   3.7299   3.7873   3.7879   4.1675   4.1682
     4.2297   4.2298   5.3092   5.3098   7.0674   7.0678   7.0921   7.0931
     7.1114   7.1116   8.5220   8.5221   8.8698   8.8698   9.7170   9.7171
     9.8511   9.8522  10.9972  10.9973

          k =-0.5000 0.0000 0.0000 (  6568 PWs)   bands (ev):

   -36.1451 -36.1451 -36.1404 -36.1404 -36.1224 -36.1224 -36.1162 -36.1162
   -16.9057 -16.9057 -16.9048 -16.9048 -16.8328 -16.8328 -16.8265 -16.8265
   -12.7018 -12.7018 -12.6978 -12.6978 -12.5907 -12.5907 -12.5870 -12.5870
   -12.5705 -12.5705 -12.5447 -12.5447 -12.4587 -12.4587 -12.4546 -12.4546
     2.3204   2.3204   2.9507   2.9507   4.0884   4.0884   4.0987   4.0987
     4.3993   4.3993   4.6553   4.6553   7.2430   7.2430   7.6695   7.6695
     7.6706   7.6706   8.5442   8.5442   9.2787   9.2788   9.6837   9.6837
    10.1674  10.1674  10.2111  10.2111

          k = 0.0000-0.5000 0.0000 (  6568 PWs)   bands (ev):

   -36.1470 -36.1470 -36.1367 -36.1367 -36.1258 -36.1258 -36.1147 -36.1147
   -16.9097 -16.9097 -16.9003 -16.9003 -16.8357 -16.8357 -16.8242 -16.8242
   -12.7043 -12.7043 -12.6951 -12.6951 -12.5925 -12.5925 -12.5845 -12.5845
   -12.5714 -12.5714 -12.5445 -12.5445 -12.4618 -12.4618 -12.4516 -12.4516
     2.3202   2.3202   2.9509   2.9509   4.0884   4.0884   4.0986   4.0986
     4.3992   4.3992   4.6555   4.6555   7.2428   7.2428   7.6696   7.6696
     7.6705   7.6705   8.5442   8.5442   9.2789   9.2789   9.6838   9.6838
    10.1673  10.1673  10.2115  10.2117

          k = 0.0000-0.2500 0.2500 (  6624 PWs)   bands (ev):

   -36.1510 -36.1510 -36.1308 -36.1308 -36.1269 -36.1269 -36.1154 -36.1154
   -16.9055 -16.9041 -16.8883 -16.8860 -16.8847 -16.8825 -16.7957 -16.7956
   -12.7186 -12.7170 -12.6954 -12.6933 -12.6782 -12.6779 -12.5648 -12.5644
   -12.5299 -12.5297 -12.5216 -12.5213 -12.4912 -12.4909 -12.4007 -12.4007
     1.9288   1.9292   3.7361   3.7376   3.8349   3.8377   3.9023   3.9030
     4.2379   4.2380   4.8618   4.8620   7.3360   7.3364   7.4368   7.4371
     7.6196   7.6199   8.3802   8.3803   8.7255   8.7255   9.6994   9.6994
     9.9870   9.9886  10.9800  10.9802

          k = 0.2500 0.0000-0.2500 (  6624 PWs)   bands (ev):

   -36.1509 -36.1509 -36.1322 -36.1322 -36.1252 -36.1252 -36.1158 -36.1158
   -16.9042 -16.9038 -16.8915 -16.8894 -16.8822 -16.8800 -16.7958 -16.7956
   -12.7182 -12.7170 -12.6954 -12.6939 -12.6780 -12.6775 -12.5653 -12.5647
   -12.5302 -12.5297 -12.5212 -12.5205 -12.4913 -12.4908 -12.4010 -12.4009
     1.9303   1.9305   3.7366   3.7383   3.8374   3.8397   3.9013   3.9025
     4.2353   4.2370   4.8583   4.8589   7.3357   7.3369   7.4369   7.4388
     7.6158   7.6164   8.3785   8.3789   8.7260   8.7260   9.7013   9.7015
     9.9886   9.9895  10.9799  10.9800

          k =-0.2500 0.0000-0.2500 (  6624 PWs)   bands (ev):

   -36.1509 -36.1509 -36.1322 -36.1322 -36.1252 -36.1252 -36.1158 -36.1158
   -16.9043 -16.9037 -16.8916 -16.8894 -16.8822 -16.8800 -16.7958 -16.7956
   -12.7184 -12.7172 -12.6955 -12.6940 -12.6780 -12.6776 -12.5649 -12.5642
   -12.5304 -12.5299 -12.5213 -12.5206 -12.4915 -12.4911 -12.4005 -12.4005
     1.9275   1.9277   3.7358   3.7374   3.8364   3.8386   3.8988   3.8999
     4.2390   4.2405   4.8649   4.8656   7.3362   7.3374   7.4352   7.4371
     7.6227   7.6234   8.3816   8.3820   8.7251   8.7251   9.6970   9.6972
     9.9866   9.9874  10.9803  10.9806

          k = 0.2500-0.2500 0.0000 (  6624 PWs)   bands (ev):

   -36.1509 -36.1509 -36.1323 -36.1323 -36.1250 -36.1250 -36.1159 -36.1159
   -16.9044 -16.9033 -16.8923 -16.8923 -16.8801 -16.8786 -16.7958 -16.7955
   -12.7202 -12.7185 -12.7051 -12.7036 -12.6688 -12.6681 -12.5545 -12.5538
   -12.5336 -12.5329 -12.5256 -12.5252 -12.4894 -12.4890 -12.4038 -12.4038
     1.9135   1.9137   3.7279   3.7290   3.7945   3.7952   3.9714   3.9724
     4.2008   4.2018   5.0440   5.0448   6.8911   6.8914   7.4384   7.4394
     7.7957   7.7961   8.4459   8.4460   8.7287   8.7288   9.7058   9.7061
     9.9838   9.9846  10.9930  10.9934

          k =-0.2500-0.2500 0.0000 (  6624 PWs)   bands (ev):

   -36.1508 -36.1508 -36.1325 -36.1325 -36.1249 -36.1249 -36.1159 -36.1159
   -16.9048 -16.9031 -16.8918 -16.8899 -16.8810 -16.8809 -16.7956 -16.7954
   -12.7200 -12.7187 -12.7007 -12.6997 -12.6739 -12.6731 -12.5547 -12.5540
   -12.5389 -12.5383 -12.5204 -12.5201 -12.4878 -12.4875 -12.4040 -12.4039
     1.9099   1.9102   3.7248   3.7259   3.8017   3.8026   3.9676   3.9685
     4.2015   4.2024   5.0497   5.0504   6.8892   6.8895   7.4403   7.4413
     7.8018   7.8021   8.4466   8.4467   8.7296   8.7297   9.7023   9.7026
     9.9823   9.9830  10.9929  10.9931

          k = 0.2500 0.0000 0.5000 (  6610 PWs)   bands (ev):

   -36.1450 -36.1450 -36.1337 -36.1337 -36.1288 -36.1288 -36.1165 -36.1165
   -16.9001 -16.9000 -16.8893 -16.8892 -16.8473 -16.8472 -16.8361 -16.8360
   -12.7016 -12.7015 -12.6788 -12.6786 -12.6121 -12.6114 -12.5989 -12.5982
   -12.5663 -12.5661 -12.5459 -12.5455 -12.4589 -12.4588 -12.4473 -12.4472
     2.7813   2.7815   2.8106   2.8108   3.9232   3.9234   3.9781   3.9784
     4.3833   4.3841   4.4106   4.4116   7.8408   7.8409   7.8850   7.8850
     8.0337   8.0338   8.0612   8.0612   9.2007   9.2009   9.2173   9.2175
    10.5253  10.5256  10.5628  10.5629

          k =-0.5000-0.2500 0.0000 (  6610 PWs)   bands (ev):

   -36.1436 -36.1436 -36.1378 -36.1378 -36.1250 -36.1250 -36.1177 -36.1177
   -16.8973 -16.8963 -16.8946 -16.8934 -16.8446 -16.8434 -16.8383 -16.8373
   -12.7027 -12.7026 -12.6917 -12.6916 -12.6085 -12.6082 -12.5889 -12.5887
   -12.5542 -12.5528 -12.5465 -12.5452 -12.4606 -12.4602 -12.4576 -12.4573
     2.5360   2.5361   3.0360   3.0365   3.7613   3.7621   4.1800   4.1814
     4.3990   4.4000   4.5744   4.5753   7.0062   7.0064   7.9927   7.9930
     8.0025   8.0026   8.6057   8.6058   9.1644   9.1644   9.2293   9.2294
    10.4768  10.4777  10.5061  10.5065

          k = 0.0000-0.5000 0.2500 (  6610 PWs)   bands (ev):

   -36.1448 -36.1448 -36.1346 -36.1346 -36.1280 -36.1280 -36.1167 -36.1167
   -16.9010 -16.8983 -16.8916 -16.8890 -16.8482 -16.8456 -16.8370 -16.8346
   -12.7047 -12.7015 -12.6920 -12.6880 -12.6091 -12.6070 -12.5910 -12.5898
   -12.5567 -12.5512 -12.5472 -12.5428 -12.4621 -12.4613 -12.4568 -12.4558
     2.5357   2.5357   3.1416   3.1424   3.7638   3.7639   4.1001   4.1014
     4.2315   4.2321   4.5744   4.5745   7.4438   7.4440   7.9581   7.9583
     8.0106   8.0107   8.3221   8.3222   9.1668   9.1670   9.2610   9.2611
    10.5300  10.5321  10.5532  10.5555

          k = 0.2500-0.5000 0.0000 (  6610 PWs)   bands (ev):

   -36.1448 -36.1448 -36.1346 -36.1346 -36.1279 -36.1279 -36.1167 -36.1167
   -16.9010 -16.8985 -16.8914 -16.8891 -16.8482 -16.8455 -16.8370 -16.8345
   -12.7048 -12.7006 -12.6941 -12.6891 -12.6088 -12.6079 -12.5886 -12.5879
   -12.5560 -12.5526 -12.5470 -12.5444 -12.4619 -12.4614 -12.4564 -12.4557
     2.5358   2.5359   3.0363   3.0367   3.7609   3.7625   4.1805   4.1807
     4.3985   4.4004   4.5749   4.5751   7.0060   7.0065   7.9926   7.9928
     8.0026   8.0029   8.6057   8.6058   9.1643   9.1645   9.2292   9.2296
    10.4770  10.4782  10.5052  10.5074

          k =-0.5000 0.0000 0.2500 (  6610 PWs)   bands (ev):

   -36.1436 -36.1436 -36.1378 -36.1378 -36.1250 -36.1250 -36.1177 -36.1177
   -16.8974 -16.8960 -16.8947 -16.8934 -16.8446 -16.8433 -16.8385 -16.8373
   -12.7038 -12.7021 -12.6910 -12.6895 -12.6081 -12.6074 -12.5922 -12.5888
   -12.5550 -12.5531 -12.5457 -12.5446 -12.4608 -12.4598 -12.4579 -12.4573
     2.5358   2.5359   3.1414   3.1423   3.7634   3.7642   4.0972   4.1040
     4.2277   4.2357   4.5742   4.5752   7.4440   7.4441   7.9579   7.9583
     8.0106   8.0107   8.3222   8.3223   9.1667   9.1668   9.2610   9.2611
    10.5298  10.5310  10.5542  10.5552

          k =-0.5000 0.0000 0.5000 (  6632 PWs)   bands (ev):

   -36.1418 -36.1418 -36.1320 -36.1320 -36.1309 -36.1309 -36.1194 -36.1194
   -16.8793 -16.8793 -16.8712 -16.8712 -16.8672 -16.8672 -16.8577 -16.8577
   -12.6781 -12.6781 -12.6710 -12.6710 -12.6504 -12.6504 -12.6433 -12.6433
   -12.5051 -12.5051 -12.4962 -12.4962 -12.4879 -12.4879 -12.4794 -12.4794
     3.0891   3.0891   3.1021   3.1021   3.6227   3.6227   3.6232   3.6232
     4.3743   4.3743   4.3899   4.3899   7.8858   7.8858   7.8867   7.8867
     8.6901   8.6901   8.6910   8.6910   8.7505   8.7505   8.7544   8.7544
    10.5139  10.5161  10.5212  10.5233

          k =-0.5000 0.5000 0.0000 (  6632 PWs)   bands (ev):

   -36.1419 -36.1419 -36.1320 -36.1320 -36.1308 -36.1308 -36.1194 -36.1194
   -16.8796 -16.8796 -16.8716 -16.8716 -16.8668 -16.8668 -16.8573 -16.8573
   -12.6790 -12.6790 -12.6659 -12.6659 -12.6648 -12.6648 -12.6337 -12.6337
   -12.5042 -12.5042 -12.4931 -12.4931 -12.4915 -12.4915 -12.4792 -12.4792
     3.0705   3.0705   3.1185   3.1185   3.1340   3.1340   4.3456   4.3456
     4.4018   4.4018   4.4131   4.4131   6.8160   6.8160   8.6449   8.6449
     8.6554   8.6554   8.6854   8.6854   8.6944   8.6944   8.8254   8.8254
    10.4868  10.4872  10.5171  10.5178

          k =-0.2500-0.2500 0.2500 (  6595 PWs)   bands (ev):

   -36.1478 -36.1478 -36.1325 -36.1325 -36.1269 -36.1269 -36.1169 -36.1169
   -16.8956 -16.8930 -16.8888 -16.8863 -16.8810 -16.8798 -16.8118 -16.8115
   -12.7119 -12.7089 -12.7013 -12.6980 -12.6826 -12.6822 -12.5515 -12.5506
   -12.5327 -12.5319 -12.5160 -12.5139 -12.5091 -12.5074 -12.4017 -12.4016
     2.1709   2.1714   3.5191   3.5216   3.6848   3.6870   3.9267   3.9280
     4.3047   4.3061   4.8079   4.8085   7.2564   7.2568   7.8430   7.8435
     8.0180   8.0183   8.4831   8.4833   8.6671   8.6671   9.7307   9.7312
     9.9351   9.9358  10.6338  10.6359

          k =-0.2500 0.2500-0.2500 (  6595 PWs)   bands (ev):

   -36.1479 -36.1479 -36.1323 -36.1323 -36.1269 -36.1269 -36.1170 -36.1170
   -16.8962 -16.8946 -16.8888 -16.8865 -16.8803 -16.8778 -16.8120 -16.8117
   -12.7153 -12.7132 -12.7012 -12.6986 -12.6779 -12.6776 -12.5506 -12.5497
   -12.5279 -12.5275 -12.5175 -12.5157 -12.5139 -12.5120 -12.4012 -12.4012
     2.1723   2.1727   3.5074   3.5099   3.6964   3.6985   3.9195   3.9208
     4.3144   4.3158   4.8045   4.8051   7.2559   7.2563   7.8455   7.8461
     8.0159   8.0163   8.4834   8.4836   8.6661   8.6661   9.7306   9.7311
     9.9348   9.9356  10.6352  10.6374

          k = 0.2500-0.2500-0.2500 (  6595 PWs)   bands (ev):

   -36.1479 -36.1479 -36.1323 -36.1323 -36.1269 -36.1269 -36.1170 -36.1170
   -16.8961 -16.8946 -16.8888 -16.8865 -16.8803 -16.8778 -16.8121 -16.8117
   -12.7151 -12.7132 -12.7012 -12.6984 -12.6779 -12.6775 -12.5507 -12.5497
   -12.5281 -12.5275 -12.5175 -12.5156 -12.5139 -12.5120 -12.4015 -12.4015
     2.1758   2.1760   3.5134   3.5140   3.6919   3.6923   3.9247   3.9259
     4.3087   4.3098   4.7981   4.7991   7.2566   7.2570   7.8424   7.8430
     8.0134   8.0140   8.4834   8.4836   8.6669   8.6669   9.7321   9.7323
     9.9366   9.9369  10.6350  10.6358

          k =-0.2500 0.2500 0.5000 (  6608 PWs)   bands (ev):

   -36.1437 -36.1437 -36.1324 -36.1324 -36.1301 -36.1301 -36.1179 -36.1179
   -16.8946 -16.8945 -16.8821 -16.8817 -16.8553 -16.8551 -16.8451 -16.8450
   -12.7185 -12.7183 -12.6870 -12.6866 -12.6501 -12.6494 -12.6320 -12.6310
   -12.5226 -12.5222 -12.5082 -12.5075 -12.4511 -12.4509 -12.4359 -12.4355
     2.7208   2.7213   3.0761   3.0775   3.3866   3.3882   3.9589   3.9610
     4.4996   4.5019   4.5858   4.5863   7.8126   7.8131   7.9931   7.9935
     8.3211   8.3214   8.5101   8.5102   9.2659   9.2662   9.2957   9.2963
     9.9359   9.9370  10.1147  10.1150

          k =-0.5000-0.2500 0.2500 (  6608 PWs)   bands (ev):

   -36.1427 -36.1427 -36.1360 -36.1360 -36.1269 -36.1269 -36.1185 -36.1185
   -16.8914 -16.8894 -16.8889 -16.8869 -16.8529 -16.8511 -16.8471 -16.8456
   -12.7130 -12.7114 -12.7042 -12.7025 -12.6442 -12.6431 -12.6290 -12.6265
   -12.5151 -12.5141 -12.5111 -12.5101 -12.4469 -12.4464 -12.4449 -12.4445
     2.6537   2.6542   3.0124   3.0128   3.6000   3.6005   3.8884   3.8888
     4.5428   4.5437   4.6175   4.6186   7.3712   7.3713   8.2477   8.2478
     8.3678   8.3679   8.5208   8.5209   9.2812   9.2815   9.3042   9.3044
     9.9634   9.9638  10.0478  10.0494

          k = 0.5000-0.2500-0.2500 (  6608 PWs)   bands (ev):

   -36.1427 -36.1427 -36.1360 -36.1360 -36.1269 -36.1269 -36.1185 -36.1185
   -16.8914 -16.8894 -16.8889 -16.8869 -16.8529 -16.8512 -16.8471 -16.8456
   -12.7128 -12.7115 -12.7043 -12.7024 -12.6442 -12.6431 -12.6291 -12.6265
   -12.5151 -12.5138 -12.5114 -12.5101 -12.4470 -12.4461 -12.4451 -12.4445
     2.6538   2.6539   3.0123   3.0132   3.6000   3.6009   3.8877   3.8893
     4.5415   4.5436   4.6183   4.6186   7.3711   7.3713   8.2476   8.2479
     8.3678   8.3679   8.5208   8.5209   9.2810   9.2810   9.3045   9.3046
     9.9640   9.9641  10.0489  10.0490

          k =-0.2500-0.5000 0.2500 (  6608 PWs)   bands (ev):

   -36.1435 -36.1435 -36.1334 -36.1334 -36.1292 -36.1292 -36.1179 -36.1179
   -16.8945 -16.8920 -16.8851 -16.8828 -16.8564 -16.8537 -16.8456 -16.8432
   -12.7139 -12.7105 -12.7052 -12.7010 -12.6455 -12.6419 -12.6296 -12.6260
   -12.5167 -12.5138 -12.5110 -12.5084 -12.4486 -12.4481 -12.4436 -12.4432
     2.6564   2.6569   3.0142   3.0146   3.5967   3.5977   3.8895   3.8908
     4.5418   4.5431   4.6129   4.6141   7.3715   7.3720   8.2467   8.2470
     8.3672   8.3676   8.5211   8.5212   9.2821   9.2833   9.3032   9.3043
     9.9639   9.9646  10.0482  10.0489

          k =-0.2500 0.5000-0.2500 (  6608 PWs)   bands (ev):

   -36.1435 -36.1435 -36.1334 -36.1334 -36.1292 -36.1292 -36.1179 -36.1179
   -16.8946 -16.8920 -16.8852 -16.8827 -16.8564 -16.8536 -16.8456 -16.8431
   -12.7139 -12.7107 -12.7052 -12.7011 -12.6458 -12.6420 -12.6295 -12.6259
   -12.5167 -12.5138 -12.5111 -12.5086 -12.4483 -12.4479 -12.4434 -12.4429
     2.6506   2.6511   3.0111   3.0114   3.6034   3.6042   3.8862   3.8875
     4.5427   4.5439   4.6223   4.6236   7.3703   7.3709   8.2486   8.2487
     8.3682   8.3685   8.5205   8.5206   9.2792   9.2800   9.3048   9.3055
     9.9635   9.9641  10.0486  10.0493

          k =-0.5000 0.2500 0.5000 (  6572 PWs)   bands (ev):

   -36.1418 -36.1418 -36.1319 -36.1319 -36.1309 -36.1309 -36.1194 -36.1194
   -16.8807 -16.8806 -16.8726 -16.8726 -16.8684 -16.8684 -16.8590 -16.8589
   -12.7088 -12.7082 -12.7023 -12.7020 -12.6794 -12.6791 -12.6730 -12.6725
   -12.4704 -12.4696 -12.4617 -12.4610 -12.4565 -12.4558 -12.4485 -12.4477
     2.9003   2.9009   2.9142   2.9147   3.5190   3.5190   3.5196   3.5196
     4.6557   4.6566   4.6706   4.6714   7.9915   7.9915   7.9945   7.9945
     9.0061   9.0066   9.0095   9.0097   9.1593   9.1594   9.1629   9.1630
     9.8718   9.8725   9.8738   9.8745

          k =-0.5000 0.5000 0.2500 (  6572 PWs)   bands (ev):

   -36.1418 -36.1418 -36.1320 -36.1320 -36.1308 -36.1308 -36.1193 -36.1193
   -16.8810 -16.8806 -16.8735 -16.8716 -16.8695 -16.8675 -16.8590 -16.8585
   -12.7096 -12.7078 -12.7023 -12.7014 -12.6853 -12.6829 -12.6703 -12.6663
   -12.4700 -12.4694 -12.4610 -12.4606 -12.4570 -12.4559 -12.4487 -12.4480
     2.9074   2.9089   2.9216   2.9231   3.1537   3.1552   3.9648   3.9660
     4.6653   4.6656   4.6773   4.6776   7.3359   7.3360   8.5149   8.5151
     9.0044   9.0046   9.0229   9.0230   9.0676   9.0678   9.2268   9.2268
     9.8099   9.8105   9.8134   9.8144

     the Fermi energy is     8.3850 ev

!    total energy              =   -2245.86472995 Ry
     Harris-Foulkes estimate   =   -2245.86473004 Ry
     estimated scf accuracy    <       0.00000010 Ry

     total all-electron energy =    -90250.208115 Ry

     The total energy is the sum of the following terms:

     one-electron contribution =     -63.19559976 Ry
     hartree contribution      =      48.19255150 Ry
     xc contribution           =    -255.30293531 Ry
     ewald contribution        =    -227.50567975 Ry
     one-center paw contrib.   =   -1748.04929195 Ry
     smearing contrib. (-TS)   =      -0.00377468 Ry

     convergence has been achieved in   8 iterations

     Writing output data file 2324.save
 
     init_run     :      2.61s CPU      3.51s WALL (       1 calls)
     electrons    :     41.34s CPU     42.99s WALL (       1 calls)

     Called by init_run:
     wfcinit      :      2.32s CPU      2.72s WALL (       1 calls)
     potinit      :      0.13s CPU      0.26s WALL (       1 calls)

     Called by electrons:
     c_bands      :     34.36s CPU     35.28s WALL (       9 calls)
     sum_band     :      5.28s CPU      5.45s WALL (       9 calls)
     v_of_rho     :      0.02s CPU      0.04s WALL (       9 calls)
     newd         :      0.70s CPU      0.74s WALL (       9 calls)
     PAW_pot      :      1.10s CPU      1.19s WALL (       9 calls)
     mix_rho      :      0.04s CPU      0.06s WALL (       9 calls)

     Called by c_bands:
     init_us_2    :      0.17s CPU      0.18s WALL (     684 calls)
     cegterg      :     31.80s CPU     32.66s WALL (     324 calls)

     Called by sum_band:
     sum_band:bec :      1.47s CPU      1.47s WALL (     324 calls)
     addusdens    :      0.17s CPU      0.18s WALL (       9 calls)

     Called by *egterg:
     h_psi        :     18.92s CPU     19.76s WALL (    1296 calls)
     s_psi        :      2.09s CPU      2.11s WALL (    1296 calls)
     g_psi        :      0.08s CPU      0.08s WALL (     936 calls)
     cdiaghg      :      7.94s CPU      8.23s WALL (    1224 calls)

     Called by h_psi:
     h_psi:pot    :     18.68s CPU     19.52s WALL (    1296 calls)
     h_psi:calbec :      1.25s CPU      1.32s WALL (    1296 calls)
     vloc_psi     :     15.18s CPU     15.94s WALL (    1296 calls)
     add_vuspsi   :      2.23s CPU      2.25s WALL (    1296 calls)

     General routines
     calbec       :      1.67s CPU      1.74s WALL (    1620 calls)
     fft          :      0.02s CPU      0.20s WALL (     173 calls)
     fftw         :     16.24s CPU     17.04s WALL (  249568 calls)
     davcio       :      0.00s CPU      0.01s WALL (      36 calls)
 
     Parallel routines
     fft_scatter  :      9.50s CPU     10.07s WALL (  249741 calls)
 
     PWSCF        :  0m44.81s CPU     1m57.08s WALL

 
   This run was terminated on:  10:56:12  16Nov2022            

=------------------------------------------------------------------------------=
   JOB DONE.
=------------------------------------------------------------------------------=
Removing 2324 from /home/shaharpit/tmp
