
     Program PWSCF v.6.1 (svn rev. 13369) starts on 30Nov2022 at 13:42:29 

     This program is part of the open-source Quantum ESPRESSO suite
     for quantum simulation of materials; please cite
         "P. Giannozzi et al., J. Phys.:Condens. Matter 21 395502 (2009);
          URL http://www.quantum-espresso.org", 
     in publications or presentations arising from this work. More details at
     http://www.quantum-espresso.org/quote

     Parallel version (MPI), running on     4 processors
     R & G space division:  proc/nbgrp/npool/nimage =       4
     Reading input from ./fcc_25_1.in
Warning: card &IONS ignored
Warning: card 	ION_DYNAMICS='BFGS', ignored
Warning: card / ignored
Warning: card &CELL ignored
Warning: card / ignored

     Current dimensions of program PWSCF are:
     Max number of different atomic species (ntypx) = 10
     Max number of k-points (npk) =  40000
     Max angular momentum in pseudopotentials (lmaxx) =  3
               file Gd.rel-pbe-spdn-kjpaw_psl.1.0.0.UPF: wavefunction(s)  5P 5P renormalized
               file H.pbe-kjpaw_psl.0.1.UPF: wavefunction(s)  1S renormalized

     Subspace diagonalization in iterative solution of the eigenvalue problem:
     a serial algorithm will be used

 
     Parallelization info
     --------------------
     sticks:   dense  smooth     PW     G-vecs:    dense   smooth      PW
     Min         399     399    115                11983    11983    1873
     Max         400     400    117                11986    11986    1875
     Sum        1597    1597    465                47937    47937    7497
 


     bravais-lattice index     =            0
     lattice parameter (alat)  =      10.0212  a.u.
     unit-cell volume          =    1006.3788 (a.u.)^3
     number of atoms/cell      =            6
     number of atomic types    =            2
     number of electrons       =        46.00
     number of Kohn-Sham states=           56
     kinetic-energy cutoff     =      50.0000  Ry
     charge density cutoff     =     200.0000  Ry
     convergence threshold     =      1.0E-06
     mixing beta               =       0.7000
     number of iterations used =            8  plain     mixing
     Exchange-correlation      =  SLA  PW   PBX  PBC ( 1  4  3  4 0 0)
     Non magnetic calculation with spin-orbit


     celldm(1)=  10.021218  celldm(2)=   0.000000  celldm(3)=   0.000000
     celldm(4)=   0.000000  celldm(5)=   0.000000  celldm(6)=   0.000000

     crystal axes: (cart. coord. in units of alat)
               a(1) = (   1.000000   0.000000   0.000000 )  
               a(2) = (   0.000000   1.000000   0.000000 )  
               a(3) = (   0.000000   0.000000   1.000000 )  

     reciprocal axes: (cart. coord. in units 2 pi/alat)
               b(1) = (  1.000000  0.000000  0.000000 )  
               b(2) = (  0.000000  1.000000  0.000000 )  
               b(3) = (  0.000000  0.000000  1.000000 )  


     PseudoPot. # 1 for Gd read from file:
     /home/shaharpit/MeamGdH/dft/qe_potentials/Gd.rel-pbe-spdn-kjpaw_psl.1.0.0.UPF
     MD5 check sum: cf50ec46d1536b4a0251694df1946a53
     Pseudo is Projector augmented-wave + core cor, Zval = 11.0
     Generated using "atomic" code by A. Dal Corso  v.6.2.2
     Shape of augmentation charge: PSQ
     Using radial grid of 1263 points, 10 beta functions with: 
                l(1) =   0
                l(2) =   0
                l(3) =   1
                l(4) =   1
                l(5) =   1
                l(6) =   1
                l(7) =   2
                l(8) =   2
                l(9) =   2
               l(10) =   2
     Q(r) pseudized with 0 coefficients 


     PseudoPot. # 2 for  H read from file:
     /home/shaharpit/MeamGdH/dft/qe_potentials/H.pbe-kjpaw_psl.0.1.UPF
     MD5 check sum: fbb168fef676c0aaadbafd73f5b1efa8
     Pseudo is Projector augmented-wave, Zval =  1.0
     Generated using "atomic" code by A. Dal Corso  v.5.0.2 svn rev. 9415
     Shape of augmentation charge: PSQ
     Using radial grid of  929 points,  2 beta functions with: 
                l(1) =   0
                l(2) =   0
     Q(r) pseudized with 0 coefficients 


     atomic species   valence    mass     pseudopotential
        Gd            11.00   157.25000     Gd( 1.00)
        H              1.00     1.00794      H( 1.00)

     No symmetry found



   Cartesian axes

     site n.     atom                  positions (alat units)
         1           Gd  tau(   1) = (   0.0000000   0.0000000   0.0000000  )
         2           Gd  tau(   2) = (   0.0000000   0.5000000   0.5000000  )
         3           Gd  tau(   3) = (   0.5000000   0.0000000   0.5000000  )
         4           Gd  tau(   4) = (   0.5000000   0.5000000   0.0000000  )
         5           H   tau(   5) = (   0.2500000   0.7539000   0.7539000  )
         6           H   tau(   6) = (   0.2500000   0.7501000   0.2500000  )

     number of k points=    36  gaussian smearing, width (Ry)=  0.0100
                       cart. coord. in units 2pi/alat
        k(    1) = (   0.0000000   0.0000000   0.0000000), wk =   0.0156250
        k(    2) = (   0.0000000   0.0000000   0.2500000), wk =   0.0312500
        k(    3) = (   0.0000000   0.0000000  -0.5000000), wk =   0.0156250
        k(    4) = (   0.0000000   0.2500000   0.2500000), wk =   0.0312500
        k(    5) = (   0.0000000   0.2500000  -0.5000000), wk =   0.0312500
        k(    6) = (   0.0000000  -0.5000000  -0.5000000), wk =   0.0156250
        k(    7) = (   0.2500000   0.2500000   0.2500000), wk =   0.0312500
        k(    8) = (   0.2500000   0.2500000  -0.5000000), wk =   0.0312500
        k(    9) = (   0.2500000  -0.5000000  -0.5000000), wk =   0.0312500
        k(   10) = (  -0.5000000  -0.5000000  -0.5000000), wk =   0.0156250
        k(   11) = (   0.2500000   0.0000000   0.0000000), wk =   0.0312500
        k(   12) = (   0.0000000   0.2500000   0.0000000), wk =   0.0312500
        k(   13) = (  -0.5000000   0.0000000   0.0000000), wk =   0.0156250
        k(   14) = (   0.0000000  -0.5000000   0.0000000), wk =   0.0156250
        k(   15) = (   0.0000000  -0.2500000   0.2500000), wk =   0.0312500
        k(   16) = (   0.2500000   0.0000000  -0.2500000), wk =   0.0312500
        k(   17) = (  -0.2500000   0.0000000  -0.2500000), wk =   0.0312500
        k(   18) = (   0.2500000  -0.2500000   0.0000000), wk =   0.0312500
        k(   19) = (  -0.2500000  -0.2500000   0.0000000), wk =   0.0312500
        k(   20) = (   0.2500000   0.0000000   0.5000000), wk =   0.0312500
        k(   21) = (  -0.5000000  -0.2500000   0.0000000), wk =   0.0312500
        k(   22) = (   0.0000000  -0.5000000   0.2500000), wk =   0.0312500
        k(   23) = (   0.2500000  -0.5000000   0.0000000), wk =   0.0312500
        k(   24) = (  -0.5000000   0.0000000   0.2500000), wk =   0.0312500
        k(   25) = (  -0.5000000   0.0000000   0.5000000), wk =   0.0156250
        k(   26) = (  -0.5000000   0.5000000   0.0000000), wk =   0.0156250
        k(   27) = (  -0.2500000  -0.2500000   0.2500000), wk =   0.0312500
        k(   28) = (  -0.2500000   0.2500000  -0.2500000), wk =   0.0312500
        k(   29) = (   0.2500000  -0.2500000  -0.2500000), wk =   0.0312500
        k(   30) = (  -0.2500000   0.2500000   0.5000000), wk =   0.0312500
        k(   31) = (  -0.5000000  -0.2500000   0.2500000), wk =   0.0312500
        k(   32) = (   0.5000000  -0.2500000  -0.2500000), wk =   0.0312500
        k(   33) = (  -0.2500000  -0.5000000   0.2500000), wk =   0.0312500
        k(   34) = (  -0.2500000   0.5000000  -0.2500000), wk =   0.0312500
        k(   35) = (  -0.5000000   0.2500000   0.5000000), wk =   0.0312500
        k(   36) = (  -0.5000000   0.5000000   0.2500000), wk =   0.0312500

     Dense  grid:    47937 G-vectors     FFT dimensions: (  45,  45,  45)

     Estimated max dynamical RAM per process >     140.89MB

     Estimated total allocated dynamical RAM >     563.58MB

     Check: negative/imaginary core charge=   -0.000002    0.000000

     Initial potential from superposition of free atoms

     starting charge   45.92379, renormalised to   46.00000
     Starting wfc are  108 randomized atomic wfcs
     Checking if some PAW data can be deallocated... 

     total cpu time spent up to now is       11.6 secs

     per-process dynamical memory:   162.4 Mb

     Self-consistent Calculation

     iteration #  1     ecut=    50.00 Ry     beta=0.70
     Davidson diagonalization with overlap
     ethr =  1.00E-02,  avg # of iterations =  2.0

     Threshold (ethr) on eigenvalues was too large:
     Diagonalizing with lowered threshold

     Davidson diagonalization with overlap
     ethr =  5.34E-04,  avg # of iterations =  1.9

     total cpu time spent up to now is       41.3 secs

     total energy              =   -2240.82080475 Ry
     Harris-Foulkes estimate   =   -2240.99987373 Ry
     estimated scf accuracy    <       0.26204465 Ry

     iteration #  2     ecut=    50.00 Ry     beta=0.70
     Davidson diagonalization with overlap
     ethr =  5.70E-04,  avg # of iterations =  3.0

     total cpu time spent up to now is       59.4 secs

     total energy              =   -2240.85751958 Ry
     Harris-Foulkes estimate   =   -2240.95463642 Ry
     estimated scf accuracy    <       0.18904935 Ry

     iteration #  3     ecut=    50.00 Ry     beta=0.70
     Davidson diagonalization with overlap
     ethr =  4.11E-04,  avg # of iterations =  2.2

     total cpu time spent up to now is       75.9 secs

     total energy              =   -2240.90330630 Ry
     Harris-Foulkes estimate   =   -2240.91328738 Ry
     estimated scf accuracy    <       0.02623438 Ry

     iteration #  4     ecut=    50.00 Ry     beta=0.70
     Davidson diagonalization with overlap
     ethr =  5.70E-05,  avg # of iterations =  2.0

     total cpu time spent up to now is       91.0 secs

     total energy              =   -2240.90782112 Ry
     Harris-Foulkes estimate   =   -2240.90796014 Ry
     estimated scf accuracy    <       0.00041419 Ry

     iteration #  5     ecut=    50.00 Ry     beta=0.70
     Davidson diagonalization with overlap
     ethr =  9.00E-07,  avg # of iterations =  3.9

     total cpu time spent up to now is      135.8 secs

     total energy              =   -2240.90796512 Ry
     Harris-Foulkes estimate   =   -2240.90798098 Ry
     estimated scf accuracy    <       0.00005064 Ry

     iteration #  6     ecut=    50.00 Ry     beta=0.70
     Davidson diagonalization with overlap
     ethr =  1.10E-07,  avg # of iterations =  3.9

     total cpu time spent up to now is      207.6 secs

     total energy              =   -2240.90796746 Ry
     Harris-Foulkes estimate   =   -2240.90799152 Ry
     estimated scf accuracy    <       0.00006542 Ry

     iteration #  7     ecut=    50.00 Ry     beta=0.70
     Davidson diagonalization with overlap
     ethr =  1.10E-07,  avg # of iterations =  3.0

     total cpu time spent up to now is      222.9 secs

     total energy              =   -2240.90797955 Ry
     Harris-Foulkes estimate   =   -2240.90797994 Ry
     estimated scf accuracy    <       0.00000132 Ry

     iteration #  8     ecut=    50.00 Ry     beta=0.70
     Davidson diagonalization with overlap
     ethr =  2.86E-09,  avg # of iterations =  3.6

     total cpu time spent up to now is      237.9 secs

     End of self-consistent calculation

          k = 0.0000 0.0000 0.0000 (  6031 PWs)   bands (ev):

   -35.3108 -35.3108 -35.2631 -35.2631 -35.2564 -35.2564 -35.2480 -35.2480
   -16.0743 -16.0743 -16.0654 -16.0654 -16.0559 -16.0559 -15.8656 -15.8656
   -11.9573 -11.9573 -11.9279 -11.9279 -11.8908 -11.8908 -11.6950 -11.6950
   -11.6790 -11.6790 -11.6693 -11.6693 -11.4686 -11.4686 -11.4633 -11.4633
     2.8500   2.8500   4.7297   4.7297   6.7181   6.7181   7.3439   7.3439
     7.3488   7.3488   7.3511   7.3511   8.2481   8.2481   9.4433   9.4433
    10.1236  10.1236  10.4884  10.4884  10.4957  10.4957  10.6680  10.6680

          k = 0.0000 0.0000 0.2500 (  6023 PWs)   bands (ev):

   -35.3032 -35.3032 -35.2669 -35.2669 -35.2587 -35.2587 -35.2493 -35.2493
   -16.0714 -16.0711 -16.0600 -16.0587 -16.0364 -16.0348 -15.8955 -15.8952
   -11.9303 -11.9303 -11.8798 -11.8781 -11.8637 -11.8612 -11.7246 -11.7234
   -11.6975 -11.6974 -11.6488 -11.6487 -11.5415 -11.5413 -11.4952 -11.4951
     3.2054   3.2062   4.5977   4.5987   6.9115   6.9126   7.3951   7.3952
     7.7563   7.7565   7.7583   7.7592   8.5460   8.5460   9.2172   9.2175
     9.7283   9.7289  10.1878  10.1889  10.5247  10.5247  10.7562  10.7563

          k = 0.0000 0.0000-0.5000 (  5942 PWs)   bands (ev):

   -35.2888 -35.2888 -35.2795 -35.2795 -35.2598 -35.2598 -35.2500 -35.2500
   -16.0686 -16.0686 -16.0604 -16.0604 -15.9707 -15.9707 -15.9621 -15.9621
   -11.8772 -11.8772 -11.8706 -11.8706 -11.7520 -11.7520 -11.7446 -11.7446
   -11.7133 -11.7133 -11.7057 -11.7057 -11.5752 -11.5752 -11.5669 -11.5669
     3.9945   3.9945   4.0257   4.0257   7.2638   7.2638   7.2763   7.2763
     8.3588   8.3588   8.3598   8.3598   9.1590   9.1590   9.1600   9.1600
     9.3914   9.3914   9.3930   9.3930  10.5628  10.5629  10.5686  10.5686

          k = 0.0000 0.2500 0.2500 (  6016 PWs)   bands (ev):

   -35.2969 -35.2969 -35.2668 -35.2668 -35.2630 -35.2630 -35.2514 -35.2514
   -16.0642 -16.0629 -16.0430 -16.0409 -16.0391 -16.0360 -15.9211 -15.9207
   -11.9090 -11.9084 -11.8693 -11.8691 -11.8450 -11.8440 -11.7155 -11.7143
   -11.6685 -11.6684 -11.6656 -11.6654 -11.6167 -11.6167 -11.5059 -11.5059
     3.4352   3.4358   4.6338   4.6350   6.7990   6.7999   7.7774   7.7777
     7.9546   7.9553   8.1128   8.1129   8.6995   8.6995   9.2576   9.2578
     9.4215   9.4219   9.8591   9.8594  10.0333  10.0334  10.7193  10.7195

          k = 0.0000 0.2500-0.5000 (  6018 PWs)   bands (ev):

   -35.2853 -35.2853 -35.2761 -35.2761 -35.2633 -35.2633 -35.2534 -35.2534
   -16.0563 -16.0560 -16.0471 -16.0468 -15.9866 -15.9862 -15.9771 -15.9766
   -11.8931 -11.8930 -11.8525 -11.8524 -11.7741 -11.7720 -11.7410 -11.7406
   -11.7147 -11.7115 -11.6834 -11.6831 -11.5877 -11.5871 -11.5664 -11.5660
     4.0760   4.0768   4.1092   4.1101   7.3488   7.3490   7.4070   7.4082
     8.6319   8.6336   8.6818   8.6823   8.9904   8.9906   8.9928   8.9931
     9.3001   9.3002   9.3036   9.3038  10.1638  10.1639  10.1781  10.1785

          k = 0.0000-0.5000-0.5000 (  6024 PWs)   bands (ev):

   -35.2798 -35.2798 -35.2708 -35.2708 -35.2687 -35.2687 -35.2586 -35.2586
   -16.0284 -16.0284 -16.0213 -16.0213 -16.0147 -16.0147 -16.0066 -16.0066
   -11.8569 -11.8569 -11.8566 -11.8566 -11.8080 -11.8080 -11.8079 -11.8079
   -11.6367 -11.6367 -11.6349 -11.6349 -11.6063 -11.6063 -11.6055 -11.6055
     4.1632   4.1632   4.1904   4.1904   7.5177   7.5177   7.5179   7.5179
     8.6054   8.6054   8.6076   8.6076   9.3342   9.3342   9.3347   9.3347
     9.5458   9.5458   9.5459   9.5459   9.6127   9.6127   9.6135   9.6135

          k = 0.2500 0.2500 0.2500 (  6007 PWs)   bands (ev):

   -35.2916 -35.2916 -35.2693 -35.2693 -35.2630 -35.2630 -35.2541 -35.2541
   -16.0498 -16.0487 -16.0438 -16.0405 -16.0370 -16.0325 -15.9426 -15.9422
   -11.9018 -11.9008 -11.8810 -11.8794 -11.8493 -11.8478 -11.6936 -11.6925
   -11.6733 -11.6722 -11.6556 -11.6542 -11.6412 -11.6404 -11.5059 -11.5058
     3.5663   3.5669   4.6103   4.6112   6.8302   6.8307   7.8539   7.8540
     8.1341   8.1350   8.4382   8.4390   8.8319   8.8321   9.2706   9.2712
     9.3660   9.3664   9.7708   9.7709   9.9356   9.9358  10.7157  10.7158

          k = 0.2500 0.2500-0.5000 (  6004 PWs)   bands (ev):

   -35.2828 -35.2828 -35.2740 -35.2740 -35.2657 -35.2657 -35.2554 -35.2554
   -16.0477 -16.0473 -16.0396 -16.0392 -15.9998 -15.9994 -15.9869 -15.9867
   -11.9091 -11.9090 -11.8646 -11.8640 -11.8250 -11.8241 -11.7825 -11.7825
   -11.6668 -11.6658 -11.6310 -11.6308 -11.5712 -11.5707 -11.5525 -11.5522
     4.0039   4.0043   4.1646   4.1647   7.0475   7.0476   8.0301   8.0364
     8.1334   8.1398   8.9495   8.9534   8.9789   8.9824   9.0738   9.0745
     9.4253   9.4255   9.9289   9.9290  10.2360  10.2382  10.2433  10.2454

          k = 0.2500-0.5000-0.5000 (  6000 PWs)   bands (ev):

   -35.2798 -35.2798 -35.2708 -35.2708 -35.2686 -35.2686 -35.2585 -35.2585
   -16.0312 -16.0311 -16.0239 -16.0238 -16.0167 -16.0167 -16.0085 -16.0084
   -11.8968 -11.8965 -11.8921 -11.8918 -11.8463 -11.8462 -11.8408 -11.8408
   -11.5961 -11.5959 -11.5895 -11.5893 -11.5690 -11.5690 -11.5627 -11.5627
     4.0577   4.0579   4.0841   4.0843   7.3238   7.3239   7.3252   7.3252
     8.7408   8.7413   8.7446   8.7451   9.4592   9.4592   9.4681   9.4681
     9.9006   9.9015   9.9087   9.9096  10.2128  10.2128  10.2193  10.2194

          k =-0.5000-0.5000-0.5000 (  6008 PWs)   bands (ev):

   -35.2798 -35.2798 -35.2708 -35.2708 -35.2686 -35.2686 -35.2585 -35.2585
   -16.0338 -16.0338 -16.0264 -16.0264 -16.0187 -16.0187 -16.0104 -16.0104
   -11.9258 -11.9258 -11.9207 -11.9207 -11.8737 -11.8737 -11.8678 -11.8678
   -11.5623 -11.5623 -11.5545 -11.5545 -11.5376 -11.5376 -11.5302 -11.5302
     3.9598   3.9598   3.9854   3.9854   7.1439   7.1439   7.1450   7.1450
     8.9441   8.9441   8.9492   8.9492   9.8406   9.8406   9.8416   9.8416
    10.3035  10.3035  10.3043  10.3043  10.4140  10.4140  10.4155  10.4155

          k = 0.2500 0.0000 0.0000 (  6023 PWs)   bands (ev):

   -35.3031 -35.3031 -35.2682 -35.2682 -35.2563 -35.2563 -35.2505 -35.2505
   -16.0677 -16.0667 -16.0650 -16.0649 -16.0346 -16.0334 -15.8954 -15.8951
   -11.9207 -11.9201 -11.9061 -11.9056 -11.8462 -11.8454 -11.7136 -11.7132
   -11.7081 -11.7072 -11.6487 -11.6485 -11.5379 -11.5376 -11.4991 -11.4990
     3.1460   3.1463   4.8081   4.8082   6.5372   6.5374   7.6029   7.6041
     7.7523   7.7527   7.7569   7.7588   8.5170   8.5171   9.4004   9.4006
     9.5503   9.5511  10.2057  10.2067  10.5222  10.5224  10.7616  10.7619

          k = 0.0000 0.2500 0.0000 (  6023 PWs)   bands (ev):

   -35.3033 -35.3033 -35.2659 -35.2659 -35.2600 -35.2600 -35.2489 -35.2489
   -16.0708 -16.0704 -16.0609 -16.0603 -16.0351 -16.0348 -15.8953 -15.8952
   -11.9208 -11.9207 -11.9056 -11.9054 -11.8459 -11.8458 -11.7146 -11.7142
   -11.7066 -11.7062 -11.6489 -11.6488 -11.5379 -11.5377 -11.4989 -11.4989
     3.1460   3.1462   4.8080   4.8081   6.5372   6.5374   7.6038   7.6039
     7.7524   7.7527   7.7575   7.7575   8.5171   8.5171   9.4003   9.4004
     9.5505   9.5512  10.2060  10.2065  10.5223  10.5224  10.7617  10.7617

          k =-0.5000 0.0000 0.0000 (  5942 PWs)   bands (ev):

   -35.2865 -35.2865 -35.2831 -35.2831 -35.2563 -35.2563 -35.2521 -35.2521
   -16.0652 -16.0652 -16.0644 -16.0644 -15.9697 -15.9697 -15.9624 -15.9624
   -11.8797 -11.8797 -11.8738 -11.8738 -11.7513 -11.7513 -11.7478 -11.7478
   -11.7108 -11.7108 -11.6920 -11.6920 -11.5770 -11.5770 -11.5733 -11.5733
     3.5199   3.5199   4.8927   4.8927   6.2188   6.2188   7.9335   7.9335
     8.3564   8.3564   8.3593   8.3593   9.0726   9.0726   9.2534   9.2534
     9.3499   9.3499   9.3699   9.3699  10.5337  10.5337  10.6390  10.6390

          k = 0.0000-0.5000 0.0000 (  5942 PWs)   bands (ev):

   -35.2896 -35.2896 -35.2780 -35.2780 -35.2612 -35.2612 -35.2493 -35.2493
   -16.0696 -16.0696 -16.0594 -16.0594 -15.9727 -15.9727 -15.9599 -15.9599
   -11.8819 -11.8819 -11.8714 -11.8714 -11.7538 -11.7538 -11.7445 -11.7445
   -11.7121 -11.7121 -11.6915 -11.6915 -11.5807 -11.5807 -11.5697 -11.5697
     3.5198   3.5198   4.8925   4.8925   6.2189   6.2189   7.9337   7.9337
     8.3567   8.3567   8.3589   8.3589   9.0726   9.0726   9.2534   9.2534
     9.3498   9.3498   9.3699   9.3699  10.5337  10.5337  10.6390  10.6390

          k = 0.0000-0.2500 0.2500 (  6016 PWs)   bands (ev):

   -35.2969 -35.2969 -35.2668 -35.2668 -35.2630 -35.2630 -35.2514 -35.2514
   -16.0641 -16.0630 -16.0430 -16.0409 -16.0390 -16.0360 -15.9212 -15.9207
   -11.9090 -11.9084 -11.8696 -11.8689 -11.8450 -11.8440 -11.7159 -11.7140
   -11.6684 -11.6683 -11.6656 -11.6655 -11.6169 -11.6166 -11.5059 -11.5059
     3.4350   3.4361   4.6339   4.6348   6.7996   6.7998   7.7772   7.7774
     7.9548   7.9552   8.1126   8.1128   8.6995   8.6995   9.2577   9.2577
     9.4218   9.4220   9.8592   9.8593  10.0333  10.0334  10.7193  10.7194

          k = 0.2500 0.0000-0.2500 (  6016 PWs)   bands (ev):

   -35.2968 -35.2968 -35.2689 -35.2689 -35.2601 -35.2601 -35.2523 -35.2523
   -16.0628 -16.0627 -16.0473 -16.0430 -16.0372 -16.0329 -15.9212 -15.9208
   -11.9089 -11.9083 -11.8705 -11.8678 -11.8458 -11.8428 -11.7154 -11.7150
   -11.6706 -11.6693 -11.6641 -11.6635 -11.6172 -11.6169 -11.5059 -11.5059
     3.4366   3.4373   4.6348   4.6358   6.7975   6.7979   7.7780   7.7783
     7.9536   7.9548   8.1105   8.1119   8.6995   8.6996   9.2537   9.2539
     9.4177   9.4180   9.8592   9.8594  10.0334  10.0338  10.7215  10.7216

          k =-0.2500 0.0000-0.2500 (  6016 PWs)   bands (ev):

   -35.2968 -35.2968 -35.2689 -35.2689 -35.2601 -35.2601 -35.2523 -35.2523
   -16.0628 -16.0626 -16.0473 -16.0431 -16.0372 -16.0330 -15.9211 -15.9207
   -11.9090 -11.9084 -11.8709 -11.8682 -11.8460 -11.8430 -11.7151 -11.7147
   -11.6706 -11.6690 -11.6639 -11.6634 -11.6170 -11.6166 -11.5059 -11.5059
     3.4337   3.4345   4.6330   4.6339   6.8012   6.8017   7.7766   7.7768
     7.9547   7.9559   8.1140   8.1154   8.6995   8.6996   9.2614   9.2617
     9.4256   9.4260   9.8591   9.8593  10.0330  10.0333  10.7167  10.7168

          k = 0.2500-0.2500 0.0000 (  6016 PWs)   bands (ev):

   -35.2969 -35.2969 -35.2682 -35.2682 -35.2611 -35.2611 -35.2520 -35.2520
   -16.0636 -16.0616 -16.0483 -16.0461 -16.0332 -16.0330 -15.9212 -15.9208
   -11.9043 -11.9024 -11.8878 -11.8858 -11.8318 -11.8312 -11.7102 -11.7084
   -11.6819 -11.6808 -11.6585 -11.6579 -11.6172 -11.6166 -11.5066 -11.5065
     3.3590   3.3594   4.8569   4.8570   6.6084   6.6086   7.6606   7.6607
     7.9758   7.9760   8.1843   8.1847   8.7412   8.7413   9.2639   9.2648
     9.3844   9.3852   9.9336   9.9337   9.9796   9.9798  10.7273  10.7274

          k =-0.2500-0.2500 0.0000 (  6016 PWs)   bands (ev):

   -35.2968 -35.2968 -35.2686 -35.2686 -35.2608 -35.2608 -35.2519 -35.2519
   -16.0633 -16.0619 -16.0457 -16.0453 -16.0358 -16.0343 -15.9210 -15.9205
   -11.9034 -11.9015 -11.8859 -11.8837 -11.8363 -11.8357 -11.7101 -11.7081
   -11.6860 -11.6847 -11.6539 -11.6532 -11.6155 -11.6149 -11.5075 -11.5074
     3.3557   3.3561   4.8562   4.8563   6.6105   6.6106   7.6619   7.6620
     7.9678   7.9680   8.1955   8.1960   8.7407   8.7407   9.2723   9.2732
     9.3893   9.3901   9.9359   9.9360   9.9811   9.9813  10.7219  10.7221

          k = 0.2500 0.0000 0.5000 (  6018 PWs)   bands (ev):

   -35.2853 -35.2853 -35.2761 -35.2761 -35.2633 -35.2633 -35.2534 -35.2534
   -16.0562 -16.0561 -16.0470 -16.0469 -15.9865 -15.9863 -15.9769 -15.9768
   -11.8932 -11.8931 -11.8525 -11.8525 -11.7728 -11.7726 -11.7407 -11.7405
   -11.7133 -11.7132 -11.6838 -11.6837 -11.5873 -11.5872 -11.5661 -11.5660
     4.0761   4.0766   4.1095   4.1099   7.3487   7.3488   7.4077   7.4078
     8.6326   8.6327   8.6821   8.6821   8.9898   8.9904   8.9930   8.9936
     9.3002   9.3002   9.3037   9.3038  10.1631  10.1633  10.1787  10.1789

          k =-0.5000-0.2500 0.0000 (  6018 PWs)   bands (ev):

   -35.2836 -35.2836 -35.2793 -35.2793 -35.2602 -35.2602 -35.2550 -35.2550
   -16.0543 -16.0537 -16.0503 -16.0495 -15.9853 -15.9843 -15.9780 -15.9772
   -11.8888 -11.8887 -11.8667 -11.8663 -11.7605 -11.7601 -11.7420 -11.7415
   -11.7025 -11.7019 -11.6950 -11.6944 -11.5793 -11.5790 -11.5760 -11.5758
     3.6035   3.6037   4.9071   4.9073   6.5900   6.5902   7.7264   7.7264
     8.5112   8.5114   8.7519   8.7520   8.8200   8.8204   9.1780   9.1781
     9.3369   9.3369   9.3806   9.3809  10.1706  10.1707  10.1994  10.1995

          k = 0.0000-0.5000 0.2500 (  6018 PWs)   bands (ev):

   -35.2859 -35.2859 -35.2744 -35.2744 -35.2649 -35.2649 -35.2529 -35.2529
   -16.0584 -16.0549 -16.0481 -16.0446 -15.9893 -15.9863 -15.9771 -15.9739
   -11.8870 -11.8828 -11.8722 -11.8670 -11.7631 -11.7619 -11.7415 -11.7396
   -11.7037 -11.6991 -11.6970 -11.6935 -11.5809 -11.5803 -11.5747 -11.5742
     3.7099   3.7110   4.6708   4.6719   6.5908   6.5908   8.1411   8.1416
     8.5214   8.5216   8.6853   8.6857   8.8189   8.8190   9.0863   9.0863
     9.2010   9.2010   9.3762   9.3762  10.1643  10.1650  10.2202  10.2211

          k = 0.2500-0.5000 0.0000 (  6018 PWs)   bands (ev):

   -35.2859 -35.2859 -35.2744 -35.2744 -35.2648 -35.2648 -35.2529 -35.2529
   -16.0586 -16.0548 -16.0485 -16.0444 -15.9891 -15.9863 -15.9770 -15.9739
   -11.8904 -11.8873 -11.8686 -11.8643 -11.7614 -11.7591 -11.7422 -11.7401
   -11.7050 -11.7003 -11.6967 -11.6931 -11.5809 -11.5803 -11.5745 -11.5742
     3.6034   3.6038   4.9070   4.9072   6.5901   6.5902   7.7263   7.7267
     8.5111   8.5114   8.7516   8.7522   8.8200   8.8204   9.1779   9.1781
     9.3369   9.3370   9.3805   9.3809  10.1695  10.1716  10.1985  10.2007

          k =-0.5000 0.0000 0.2500 (  6018 PWs)   bands (ev):

   -35.2836 -35.2836 -35.2793 -35.2793 -35.2602 -35.2602 -35.2550 -35.2550
   -16.0541 -16.0534 -16.0507 -16.0494 -15.9856 -15.9842 -15.9781 -15.9772
   -11.8861 -11.8837 -11.8711 -11.8682 -11.7649 -11.7594 -11.7415 -11.7399
   -11.7017 -11.7009 -11.6971 -11.6942 -11.5797 -11.5783 -11.5769 -11.5750
     3.7101   3.7108   4.6710   4.6718   6.5907   6.5908   8.1412   8.1412
     8.5211   8.5220   8.6852   8.6858   8.8185   8.8195   9.0862   9.0864
     9.2010   9.2011   9.3760   9.3765  10.1644  10.1645  10.2206  10.2207

          k =-0.5000 0.0000 0.5000 (  6024 PWs)   bands (ev):

   -35.2798 -35.2798 -35.2708 -35.2708 -35.2687 -35.2687 -35.2586 -35.2586
   -16.0285 -16.0285 -16.0209 -16.0209 -16.0150 -16.0150 -16.0065 -16.0065
   -11.8607 -11.8607 -11.8528 -11.8528 -11.8118 -11.8118 -11.8037 -11.8037
   -11.6409 -11.6409 -11.6309 -11.6309 -11.6108 -11.6108 -11.6012 -11.6012
     4.1631   4.1631   4.1903   4.1903   7.5178   7.5178   7.5179   7.5179
     8.6052   8.6052   8.6078   8.6078   9.3342   9.3342   9.3348   9.3348
     9.5457   9.5457   9.5458   9.5458   9.6127   9.6127   9.6137   9.6137

          k =-0.5000 0.5000 0.0000 (  6024 PWs)   bands (ev):

   -35.2799 -35.2799 -35.2709 -35.2709 -35.2686 -35.2686 -35.2586 -35.2586
   -16.0299 -16.0299 -16.0203 -16.0203 -16.0148 -16.0148 -16.0059 -16.0059
   -11.8751 -11.8751 -11.8324 -11.8324 -11.8184 -11.8184 -11.8032 -11.8032
   -11.6412 -11.6412 -11.6284 -11.6284 -11.6112 -11.6112 -11.6028 -11.6028
     3.6897   3.6897   4.9216   4.9216   7.4724   7.4724   7.5644   7.5644
     7.5666   7.5666   9.3138   9.3138   9.3652   9.3652   9.3816   9.3816
     9.4345   9.4345   9.5546   9.5546   9.6400   9.6400   9.6519   9.6519

          k =-0.2500-0.2500 0.2500 (  6007 PWs)   bands (ev):

   -35.2916 -35.2916 -35.2693 -35.2693 -35.2630 -35.2630 -35.2541 -35.2541
   -16.0498 -16.0486 -16.0439 -16.0404 -16.0371 -16.0325 -15.9427 -15.9422
   -11.9017 -11.9005 -11.8807 -11.8789 -11.8493 -11.8476 -11.6939 -11.6927
   -11.6736 -11.6723 -11.6558 -11.6544 -11.6413 -11.6403 -11.5059 -11.5059
     3.5687   3.5697   4.6134   4.6142   6.8241   6.8245   7.8546   7.8547
     8.1306   8.1312   8.4366   8.4371   8.8312   8.8314   9.2695   9.2700
     9.3590   9.3593   9.7720   9.7721   9.9357   9.9359  10.7176  10.7177

          k =-0.2500 0.2500-0.2500 (  6007 PWs)   bands (ev):

   -35.2918 -35.2918 -35.2690 -35.2690 -35.2630 -35.2630 -35.2543 -35.2543
   -16.0519 -16.0496 -16.0439 -16.0403 -16.0346 -16.0315 -15.9429 -15.9425
   -11.9047 -11.9037 -11.8806 -11.8790 -11.8454 -11.8438 -11.6934 -11.6921
   -11.6701 -11.6685 -11.6574 -11.6563 -11.6452 -11.6443 -11.5053 -11.5052
     3.5707   3.5717   4.6085   4.6094   6.8325   6.8328   7.8531   7.8532
     8.1319   8.1324   8.4288   8.4293   8.8320   8.8322   9.2673   9.2678
     9.3635   9.3638   9.7716   9.7717   9.9340   9.9342  10.7173  10.7175

          k = 0.2500-0.2500-0.2500 (  6007 PWs)   bands (ev):

   -35.2917 -35.2917 -35.2690 -35.2690 -35.2630 -35.2630 -35.2543 -35.2543
   -16.0518 -16.0495 -16.0438 -16.0404 -16.0345 -16.0315 -15.9430 -15.9426
   -11.9044 -11.9035 -11.8802 -11.8787 -11.8453 -11.8438 -11.6937 -11.6924
   -11.6702 -11.6687 -11.6576 -11.6563 -11.6453 -11.6444 -11.5053 -11.5052
     3.5735   3.5741   4.6116   4.6126   6.8260   6.8265   7.8539   7.8539
     8.1282   8.1292   8.4270   8.4278   8.8312   8.8315   9.2656   9.2662
     9.3565   9.3568   9.7727   9.7728   9.9341   9.9343  10.7194  10.7195

          k =-0.2500 0.2500 0.5000 (  6004 PWs)   bands (ev):

   -35.2831 -35.2831 -35.2736 -35.2736 -35.2653 -35.2653 -35.2558 -35.2558
   -16.0498 -16.0496 -16.0371 -16.0368 -15.9977 -15.9973 -15.9892 -15.9888
   -11.9119 -11.9117 -11.8611 -11.8605 -11.8230 -11.8219 -11.7849 -11.7847
   -11.6636 -11.6626 -11.6344 -11.6343 -11.5752 -11.5747 -11.5489 -11.5487
     4.0330   4.0332   4.1382   4.1385   7.0504   7.0505   8.0279   8.0344
     8.1273   8.1340   8.9442   8.9480   8.9773   8.9806   9.0711   9.0717
     9.4232   9.4234   9.9275   9.9277  10.2390  10.2422  10.2448  10.2479

          k =-0.5000-0.2500 0.2500 (  6004 PWs)   bands (ev):

   -35.2818 -35.2818 -35.2765 -35.2765 -35.2629 -35.2629 -35.2566 -35.2566
   -16.0464 -16.0453 -16.0431 -16.0411 -15.9969 -15.9948 -15.9901 -15.9888
   -11.9012 -11.8986 -11.8876 -11.8852 -11.8047 -11.8012 -11.7913 -11.7895
   -11.6527 -11.6513 -11.6486 -11.6470 -11.5623 -11.5616 -11.5601 -11.5588
     3.7223   3.7231   4.5797   4.5805   6.9108   6.9111   7.6171   7.6172
     8.5246   8.5250   8.8928   8.8931   9.0072   9.0073   9.2169   9.2173
     9.4916   9.4921   9.6579   9.6585  10.2791  10.2792  10.2972  10.2975

          k = 0.5000-0.2500-0.2500 (  6004 PWs)   bands (ev):

   -35.2818 -35.2818 -35.2765 -35.2765 -35.2629 -35.2629 -35.2566 -35.2566
   -16.0464 -16.0453 -16.0429 -16.0412 -15.9968 -15.9949 -15.9901 -15.9888
   -11.9011 -11.8988 -11.8875 -11.8853 -11.8048 -11.8013 -11.7912 -11.7895
   -11.6527 -11.6512 -11.6487 -11.6470 -11.5625 -11.5615 -11.5600 -11.5588
     3.7224   3.7230   4.5798   4.5804   6.9110   6.9111   7.6171   7.6172
     8.5245   8.5249   8.8928   8.8929   9.0073   9.0075   9.2168   9.2171
     9.4915   9.4919   9.6580   9.6581  10.2789  10.2790  10.2975  10.2975

          k =-0.2500-0.5000 0.2500 (  6004 PWs)   bands (ev):

   -35.2834 -35.2834 -35.2720 -35.2720 -35.2672 -35.2672 -35.2552 -35.2552
   -16.0503 -16.0467 -16.0403 -16.0364 -16.0005 -15.9976 -15.9890 -15.9857
   -11.9016 -11.8979 -11.8882 -11.8840 -11.8050 -11.8017 -11.7921 -11.7886
   -11.6545 -11.6505 -11.6486 -11.6461 -11.5639 -11.5634 -11.5581 -11.5579
     3.7232   3.7241   4.5822   4.5830   6.9063   6.9068   7.6154   7.6157
     8.5241   8.5244   8.8932   8.8936   9.0062   9.0066   9.2126   9.2130
     9.4931   9.4936   9.6593   9.6598  10.2804  10.2811  10.2967  10.2976

          k =-0.2500 0.5000-0.2500 (  6004 PWs)   bands (ev):

   -35.2834 -35.2834 -35.2720 -35.2720 -35.2672 -35.2672 -35.2552 -35.2552
   -16.0503 -16.0468 -16.0402 -16.0366 -16.0004 -15.9976 -15.9888 -15.9857
   -11.9020 -11.8982 -11.8887 -11.8844 -11.8046 -11.8014 -11.7920 -11.7885
   -11.6545 -11.6504 -11.6484 -11.6458 -11.5637 -11.5634 -11.5581 -11.5577
     3.7213   3.7222   4.5772   4.5780   6.9153   6.9158   7.6187   7.6190
     8.5250   8.5253   8.8923   8.8927   9.0081   9.0085   9.2209   9.2213
     9.4899   9.4903   9.6567   9.6572  10.2770  10.2776  10.2973  10.2981

          k =-0.5000 0.2500 0.5000 (  6000 PWs)   bands (ev):

   -35.2798 -35.2798 -35.2708 -35.2708 -35.2686 -35.2686 -35.2585 -35.2585
   -16.0312 -16.0312 -16.0239 -16.0235 -16.0170 -16.0167 -16.0084 -16.0084
   -11.8977 -11.8970 -11.8916 -11.8910 -11.8470 -11.8466 -11.8405 -11.8398
   -11.5973 -11.5965 -11.5888 -11.5882 -11.5702 -11.5695 -11.5621 -11.5615
     4.0577   4.0579   4.0840   4.0842   7.3239   7.3239   7.3252   7.3252
     8.7408   8.7421   8.7442   8.7446   9.4592   9.4593   9.4680   9.4681
     9.9018   9.9025   9.9077   9.9081  10.2127  10.2128  10.2192  10.2194

          k =-0.5000 0.5000 0.2500 (  6000 PWs)   bands (ev):

   -35.2798 -35.2798 -35.2708 -35.2708 -35.2686 -35.2686 -35.2585 -35.2585
   -16.0325 -16.0310 -16.0251 -16.0206 -16.0192 -16.0153 -16.0086 -16.0078
   -11.9069 -11.9033 -11.8845 -11.8809 -11.8488 -11.8467 -11.8417 -11.8386
   -11.5973 -11.5954 -11.5890 -11.5877 -11.5702 -11.5696 -11.5626 -11.5622
     3.7343   3.7349   4.5018   4.5025   7.3346   7.3347   7.3381   7.3382
     8.0943   8.0949   9.2342   9.2344   9.4662   9.4663   9.4763   9.4765
     9.8070   9.8073   9.9885   9.9896  10.2241  10.2242  10.2290  10.2292

     the Fermi energy is     9.1265 ev

!    total energy              =   -2240.90797980 Ry
     Harris-Foulkes estimate   =   -2240.90797992 Ry
     estimated scf accuracy    <       0.00000016 Ry

     total all-electron energy =    -90245.251383 Ry

     The total energy is the sum of the following terms:

     one-electron contribution =     -61.59638279 Ry
     hartree contribution      =      46.79506817 Ry
     xc contribution           =    -252.50592808 Ry
     ewald contribution        =    -225.54334057 Ry
     one-center paw contrib.   =   -1748.05334427 Ry
     smearing contrib. (-TS)   =      -0.00405224 Ry

     convergence has been achieved in   8 iterations

     Forces acting on atoms (cartesian axes, Ry/au):

     atom    1 type  1   force =     0.01972329   -0.01940194    0.00093648
     atom    2 type  1   force =     0.02089671    0.02116984    0.00079480
     atom    3 type  1   force =    -0.02035945   -0.02004245    0.00021597
     atom    4 type  1   force =    -0.02039665    0.02066899    0.00021739
     atom    5 type  2   force =     0.00014611   -0.00233015   -0.00233331
     atom    6 type  2   force =    -0.00001002   -0.00006429    0.00016866

     Total force =     0.057639     Total SCF correction =     0.000484

     Writing output data file 2391.save
########################################################################################################################
# FROM IOTK LIBRARY, VERSION 1.2.0
# UNRECOVERABLE ERROR (ierr=1)
# ERROR IN: iotk_close_write (iotk_files.f90:526)
# CVS Revision: 1.20 
# unit
iostat=28
########################################################################################################################
application called MPI_Abort(MPI_COMM_WORLD, 1) - process 0
Removing 2391 from /home/shaharpit/tmp
