
     Program PWSCF v.6.1 (svn rev. 13369) starts on 16Nov2022 at 10:52:42 

     This program is part of the open-source Quantum ESPRESSO suite
     for quantum simulation of materials; please cite
         "P. Giannozzi et al., J. Phys.:Condens. Matter 21 395502 (2009);
          URL http://www.quantum-espresso.org", 
     in publications or presentations arising from this work. More details at
     http://www.quantum-espresso.org/quote

     Parallel version (MPI), running on    32 processors
     R & G space division:  proc/nbgrp/npool/nimage =      32
     Reading input from ./fcc_50_1.1.in
Warning: card &IONS ignored
Warning: card 	ION_DYNAMICS='BFGS', ignored
Warning: card / ignored
Warning: card &CELL ignored
Warning: card / ignored

     Current dimensions of program PWSCF are:
     Max number of different atomic species (ntypx) = 10
     Max number of k-points (npk) =  40000
     Max angular momentum in pseudopotentials (lmaxx) =  3
               file Gd.rel-pbe-spdn-kjpaw_psl.1.0.0.UPF: wavefunction(s)  5P 5P renormalized
               file H.pbe-kjpaw_psl.0.1.UPF: wavefunction(s)  1S renormalized

     Subspace diagonalization in iterative solution of the eigenvalue problem:
     a serial algorithm will be used

 
     Parallelization info
     --------------------
     sticks:   dense  smooth     PW     G-vecs:    dense   smooth      PW
     Min          53      53     15                 1653     1653     255
     Max          54      54     16                 1656     1656     260
     Sum        1701    1701    489                52923    52923    8217
 


     bravais-lattice index     =            0
     lattice parameter (alat)  =      10.3447  a.u.
     unit-cell volume          =    1107.0280 (a.u.)^3
     number of atoms/cell      =            8
     number of atomic types    =            2
     number of electrons       =        48.00
     number of Kohn-Sham states=           58
     kinetic-energy cutoff     =      50.0000  Ry
     charge density cutoff     =     200.0000  Ry
     convergence threshold     =      1.0E-06
     mixing beta               =       0.7000
     number of iterations used =            8  plain     mixing
     Exchange-correlation      =  SLA  PW   PBX  PBC ( 1  4  3  4 0 0)
     Non magnetic calculation with spin-orbit


     celldm(1)=  10.344739  celldm(2)=   0.000000  celldm(3)=   0.000000
     celldm(4)=   0.000000  celldm(5)=   0.000000  celldm(6)=   0.000000

     crystal axes: (cart. coord. in units of alat)
               a(1) = (   1.000000   0.000000   0.000000 )  
               a(2) = (   0.000000   1.000000   0.000000 )  
               a(3) = (   0.000000   0.000000   1.000000 )  

     reciprocal axes: (cart. coord. in units 2 pi/alat)
               b(1) = (  1.000000  0.000000  0.000000 )  
               b(2) = (  0.000000  1.000000  0.000000 )  
               b(3) = (  0.000000  0.000000  1.000000 )  


     PseudoPot. # 1 for Gd read from file:
     /home/shaharpit/MeamGdH/dft/qe_potentials/Gd.rel-pbe-spdn-kjpaw_psl.1.0.0.UPF
     MD5 check sum: cf50ec46d1536b4a0251694df1946a53
     Pseudo is Projector augmented-wave + core cor, Zval = 11.0
     Generated using "atomic" code by A. Dal Corso  v.6.2.2
     Shape of augmentation charge: PSQ
     Using radial grid of 1263 points, 10 beta functions with: 
                l(1) =   0
                l(2) =   0
                l(3) =   1
                l(4) =   1
                l(5) =   1
                l(6) =   1
                l(7) =   2
                l(8) =   2
                l(9) =   2
               l(10) =   2
     Q(r) pseudized with 0 coefficients 


     PseudoPot. # 2 for  H read from file:
     /home/shaharpit/MeamGdH/dft/qe_potentials/H.pbe-kjpaw_psl.0.1.UPF
     MD5 check sum: fbb168fef676c0aaadbafd73f5b1efa8
     Pseudo is Projector augmented-wave, Zval =  1.0
     Generated using "atomic" code by A. Dal Corso  v.5.0.2 svn rev. 9415
     Shape of augmentation charge: PSQ
     Using radial grid of  929 points,  2 beta functions with: 
                l(1) =   0
                l(2) =   0
     Q(r) pseudized with 0 coefficients 


     atomic species   valence    mass     pseudopotential
        Gd            11.00   157.25000     Gd( 1.00)
        H              1.00     1.00794      H( 1.00)

      2 Sym. Ops. (no inversion) found



   Cartesian axes

     site n.     atom                  positions (alat units)
         1           Gd  tau(   1) = (   0.0000000   0.0000000   0.0000000  )
         2           Gd  tau(   2) = (   0.0000000   0.5000000   0.5000000  )
         3           Gd  tau(   3) = (   0.5000000   0.0000000   0.5000000  )
         4           Gd  tau(   4) = (   0.5000000   0.5000000   0.0000000  )
         5           H   tau(   5) = (   0.2500000   0.7539000   0.7539000  )
         6           H   tau(   6) = (   0.2500000   0.7501000   0.2500000  )
         7           H   tau(   7) = (   0.2500000   0.2500000   0.2500000  )
         8           H   tau(   8) = (   0.2500000   0.2500000   0.7501000  )

     number of k points=    24  gaussian smearing, width (Ry)=  0.0100
                       cart. coord. in units 2pi/alat
        k(    1) = (   0.0000000   0.0000000   0.0000000), wk =   0.0156250
        k(    2) = (   0.0000000   0.0000000   0.2500000), wk =   0.0625000
        k(    3) = (   0.0000000   0.0000000  -0.5000000), wk =   0.0312500
        k(    4) = (   0.0000000   0.2500000   0.2500000), wk =   0.0312500
        k(    5) = (   0.0000000   0.2500000  -0.5000000), wk =   0.0625000
        k(    6) = (   0.0000000  -0.5000000  -0.5000000), wk =   0.0156250
        k(    7) = (   0.2500000   0.2500000   0.2500000), wk =   0.0312500
        k(    8) = (   0.2500000   0.2500000  -0.5000000), wk =   0.0625000
        k(    9) = (   0.2500000  -0.5000000  -0.5000000), wk =   0.0312500
        k(   10) = (  -0.5000000  -0.5000000  -0.5000000), wk =   0.0156250
        k(   11) = (   0.2500000   0.0000000   0.0000000), wk =   0.0312500
        k(   12) = (  -0.5000000   0.0000000   0.0000000), wk =   0.0156250
        k(   13) = (   0.0000000   0.2500000  -0.2500000), wk =   0.0312500
        k(   14) = (   0.2500000   0.0000000  -0.2500000), wk =   0.0625000
        k(   15) = (  -0.2500000   0.0000000  -0.2500000), wk =   0.0625000
        k(   16) = (   0.2500000   0.0000000   0.5000000), wk =   0.0625000
        k(   17) = (  -0.5000000  -0.2500000   0.0000000), wk =   0.0625000
        k(   18) = (  -0.5000000   0.0000000   0.5000000), wk =   0.0312500
        k(   19) = (  -0.2500000   0.2500000  -0.2500000), wk =   0.0625000
        k(   20) = (   0.2500000  -0.2500000  -0.2500000), wk =   0.0312500
        k(   21) = (  -0.2500000   0.2500000   0.5000000), wk =   0.0625000
        k(   22) = (  -0.5000000  -0.2500000   0.2500000), wk =   0.0312500
        k(   23) = (   0.5000000  -0.2500000  -0.2500000), wk =   0.0312500
        k(   24) = (  -0.5000000   0.2500000   0.5000000), wk =   0.0625000

     Dense  grid:    52923 G-vectors     FFT dimensions: (  48,  48,  48)

     Estimated max dynamical RAM per process >      17.43MB

     Estimated total allocated dynamical RAM >     557.75MB

     Check: negative/imaginary core charge=   -0.000002    0.000000

     Initial potential from superposition of free atoms

     starting charge   47.92377, renormalised to   48.00000
     Starting wfc are  112 randomized atomic wfcs
     Checking if some PAW data can be deallocated... 

     total cpu time spent up to now is        4.8 secs

     per-process dynamical memory:    58.5 Mb

     Self-consistent Calculation

     iteration #  1     ecut=    50.00 Ry     beta=0.70
     Davidson diagonalization with overlap
     ethr =  1.00E-02,  avg # of iterations =  2.0

     Threshold (ethr) on eigenvalues was too large:
     Diagonalizing with lowered threshold

     Davidson diagonalization with overlap
     ethr =  8.38E-04,  avg # of iterations =  1.4

     total cpu time spent up to now is       10.0 secs

     total energy              =   -2243.21999736 Ry
     Harris-Foulkes estimate   =   -2243.49445099 Ry
     estimated scf accuracy    <       0.41437743 Ry

     iteration #  2     ecut=    50.00 Ry     beta=0.70
     Davidson diagonalization with overlap
     ethr =  8.63E-04,  avg # of iterations =  3.0

     total cpu time spent up to now is       13.3 secs

     total energy              =   -2243.28805228 Ry
     Harris-Foulkes estimate   =   -2243.41166741 Ry
     estimated scf accuracy    <       0.22804223 Ry

     iteration #  3     ecut=    50.00 Ry     beta=0.70
     Davidson diagonalization with overlap
     ethr =  4.75E-04,  avg # of iterations =  2.4

     total cpu time spent up to now is       16.3 secs

     total energy              =   -2243.34606271 Ry
     Harris-Foulkes estimate   =   -2243.35265953 Ry
     estimated scf accuracy    <       0.01381769 Ry

     iteration #  4     ecut=    50.00 Ry     beta=0.70
     Davidson diagonalization with overlap
     ethr =  2.88E-05,  avg # of iterations =  2.2

     total cpu time spent up to now is       19.2 secs

     total energy              =   -2243.34935122 Ry
     Harris-Foulkes estimate   =   -2243.34935100 Ry
     estimated scf accuracy    <       0.00018726 Ry

     iteration #  5     ecut=    50.00 Ry     beta=0.70
     Davidson diagonalization with overlap
     ethr =  3.90E-07,  avg # of iterations =  4.4

     total cpu time spent up to now is       23.1 secs

     total energy              =   -2243.34939212 Ry
     Harris-Foulkes estimate   =   -2243.34943842 Ry
     estimated scf accuracy    <       0.00009773 Ry

     iteration #  6     ecut=    50.00 Ry     beta=0.70
     Davidson diagonalization with overlap
     ethr =  2.04E-07,  avg # of iterations =  3.6

     total cpu time spent up to now is       26.3 secs

     total energy              =   -2243.34941521 Ry
     Harris-Foulkes estimate   =   -2243.34942408 Ry
     estimated scf accuracy    <       0.00002245 Ry

     iteration #  7     ecut=    50.00 Ry     beta=0.70
     Davidson diagonalization with overlap
     ethr =  4.68E-08,  avg # of iterations =  3.1

     total cpu time spent up to now is       29.3 secs

     End of self-consistent calculation

          k = 0.0000 0.0000 0.0000 (  6619 PWs)   bands (ev):

   -36.4141 -36.4141 -36.3840 -36.3840 -36.3780 -36.3780 -36.3703 -36.3703
   -17.1528 -17.1528 -17.1474 -17.1474 -17.1403 -17.1403 -17.0022 -17.0022
   -12.9727 -12.9727 -12.9724 -12.9724 -12.9459 -12.9459 -12.7910 -12.7910
   -12.7623 -12.7623 -12.7618 -12.7618 -12.6323 -12.6323 -12.5947 -12.5947
     1.6034   1.6034   3.8518   3.8518   3.8529   3.8529   4.3245   4.3245
     6.6186   6.6186   6.6187   6.6187   6.6235   6.6235   7.7431   7.7431
     8.7871   8.7871   8.7876   8.7876   9.4044   9.4044   9.4163   9.4163
     9.5813   9.5813

          k = 0.0000 0.0000 0.2500 (  6595 PWs)   bands (ev):

   -36.4094 -36.4094 -36.3856 -36.3856 -36.3802 -36.3802 -36.3711 -36.3711
   -17.1515 -17.1509 -17.1433 -17.1421 -17.1256 -17.1251 -17.0237 -17.0236
   -12.9541 -12.9539 -12.9291 -12.9285 -12.9249 -12.9243 -12.8128 -12.8125
   -12.7855 -12.7854 -12.7390 -12.7390 -12.6824 -12.6823 -12.6228 -12.6228
     1.9398   1.9400   3.5634   3.5635   3.9642   3.9651   4.3104   4.3112
     6.7585   6.7586   6.9934   6.9937   6.9969   6.9970   7.5139   7.5139
     8.5685   8.5686   8.7999   8.8006   8.8122   8.8126   9.6443   9.6444
     9.7843   9.7858

          k = 0.0000 0.0000-0.5000 (  6568 PWs)   bands (ev):

   -36.4014 -36.4014 -36.3918 -36.3918 -36.3815 -36.3815 -36.3716 -36.3716
   -17.1507 -17.1507 -17.1421 -17.1421 -17.0796 -17.0796 -17.0707 -17.0707
   -12.9182 -12.9182 -12.9106 -12.9106 -12.8384 -12.8384 -12.8324 -12.8324
   -12.8041 -12.8041 -12.7981 -12.7981 -12.6866 -12.6866 -12.6778 -12.6778
     2.7597   2.7597   2.7755   2.7755   4.1790   4.1790   4.1942   4.1942
     7.0660   7.0660   7.0768   7.0768   7.5640   7.5640   7.5648   7.5648
     8.3784   8.3784   8.3792   8.3792   9.5344   9.5345   9.5394   9.5395
    10.1000  10.1023

          k = 0.0000 0.2500 0.2500 (  6624 PWs)   bands (ev):

   -36.4055 -36.4055 -36.3859 -36.3859 -36.3823 -36.3823 -36.3725 -36.3725
   -17.1457 -17.1453 -17.1319 -17.1295 -17.1271 -17.1251 -17.0421 -17.0421
   -12.9278 -12.9270 -12.9234 -12.9218 -12.9171 -12.9162 -12.8104 -12.8104
   -12.7576 -12.7566 -12.7562 -12.7555 -12.7338 -12.7337 -12.6357 -12.6357
     2.2325   2.2325   3.6483   3.6486   3.7127   3.7143   4.2041   4.2041
     7.1261   7.1269   7.1276   7.1279   7.3163   7.3166   7.4508   7.4511
     8.5308   8.5309   8.5788   8.5792   8.6029   8.6030   9.6245   9.6245
     9.9177   9.9177

          k = 0.0000 0.2500-0.5000 (  6610 PWs)   bands (ev):

   -36.3992 -36.3992 -36.3896 -36.3896 -36.3837 -36.3837 -36.3737 -36.3737
   -17.1412 -17.1411 -17.1325 -17.1324 -17.0906 -17.0905 -17.0816 -17.0816
   -12.9191 -12.9187 -12.9155 -12.9151 -12.8434 -12.8412 -12.8389 -12.8366
   -12.7903 -12.7877 -12.7870 -12.7848 -12.6931 -12.6925 -12.6873 -12.6867
     2.9488   2.9493   2.9638   2.9644   3.9414   3.9419   3.9555   3.9560
     7.2719   7.2723   7.2798   7.2802   7.8684   7.8689   7.8696   7.8700
     8.1564   8.1565   8.1584   8.1584   9.1820   9.1823   9.1846   9.1849
    10.4346  10.4348

          k = 0.0000-0.5000-0.5000 (  6632 PWs)   bands (ev):

   -36.3962 -36.3962 -36.3867 -36.3867 -36.3867 -36.3867 -36.3766 -36.3766
   -17.1208 -17.1208 -17.1122 -17.1122 -17.1122 -17.1122 -17.1031 -17.1031
   -12.8925 -12.8925 -12.8906 -12.8906 -12.8903 -12.8903 -12.8887 -12.8887
   -12.7294 -12.7294 -12.7281 -12.7281 -12.7272 -12.7272 -12.7249 -12.7249
     3.4109   3.4109   3.4298   3.4298   3.4298   3.4298   3.4493   3.4493
     7.7210   7.7210   7.7225   7.7225   7.7226   7.7226   7.7238   7.7238
     8.6309   8.6309   8.6325   8.6325   8.6325   8.6325   8.6340   8.6340
    10.3412  10.3428

          k = 0.2500 0.2500 0.2500 (  6595 PWs)   bands (ev):

   -36.4023 -36.4023 -36.3875 -36.3874 -36.3823 -36.3823 -36.3741 -36.3741
   -17.1372 -17.1350 -17.1324 -17.1275 -17.1248 -17.1221 -17.0574 -17.0573
   -12.9363 -12.9358 -12.9240 -12.9233 -12.9143 -12.9138 -12.7881 -12.7880
   -12.7629 -12.7625 -12.7498 -12.7486 -12.7482 -12.7470 -12.6408 -12.6408
     2.3760   2.3762   3.6298   3.6312   3.6960   3.6982   4.1881   4.1881
     6.6211   6.6216   7.4320   7.4375   7.4462   7.4514   8.2053   8.2066
     8.4753   8.4762   8.5060   8.5077   8.5532   8.5549   9.6423   9.6424
     9.8552   9.8555

          k = 0.2500 0.2500-0.5000 (  6608 PWs)   bands (ev):

   -36.3979 -36.3979 -36.3883 -36.3883 -36.3850 -36.3850 -36.3750 -36.3750
   -17.1351 -17.1350 -17.1264 -17.1264 -17.0985 -17.0984 -17.0896 -17.0895
   -12.9320 -12.9318 -12.9284 -12.9281 -12.8740 -12.8734 -12.8696 -12.8690
   -12.7524 -12.7515 -12.7483 -12.7476 -12.6836 -12.6833 -12.6786 -12.6781
     2.9756   2.9762   2.9900   2.9905   3.8839   3.8844   3.8978   3.8984
     7.1913   7.1918   7.1966   7.1968   8.1271   8.1273   8.1281   8.1282
     8.4184   8.4188   8.4248   8.4250   9.2096   9.2101   9.2155   9.2159
     9.9313   9.9330

          k = 0.2500-0.5000-0.5000 (  6572 PWs)   bands (ev):

   -36.3962 -36.3962 -36.3867 -36.3867 -36.3867 -36.3867 -36.3766 -36.3766
   -17.1220 -17.1220 -17.1134 -17.1134 -17.1134 -17.1134 -17.1043 -17.1043
   -12.9219 -12.9219 -12.9207 -12.9206 -12.9166 -12.9164 -12.9152 -12.9152
   -12.7004 -12.7003 -12.6991 -12.6991 -12.6943 -12.6942 -12.6928 -12.6927
     3.3465   3.3466   3.3650   3.3650   3.3650   3.3650   3.3839   3.3840
     7.8258   7.8263   7.8288   7.8289   7.8289   7.8290   7.8313   7.8319
     9.0076   9.0088   9.0124   9.0126   9.0126   9.0128   9.0165   9.0176
     9.7606   9.7627

          k =-0.5000-0.5000-0.5000 (  6704 PWs)   bands (ev):

   -36.3962 -36.3962 -36.3866 -36.3866 -36.3866 -36.3866 -36.3766 -36.3766
   -17.1232 -17.1232 -17.1146 -17.1146 -17.1146 -17.1146 -17.1055 -17.1055
   -12.9440 -12.9440 -12.9429 -12.9429 -12.9378 -12.9378 -12.9367 -12.9367
   -12.6763 -12.6763 -12.6752 -12.6752 -12.6693 -12.6693 -12.6680 -12.6680
     3.2848   3.2848   3.3029   3.3029   3.3029   3.3029   3.3214   3.3214
     7.9645   7.9645   7.9680   7.9680   7.9680   7.9680   7.9713   7.9713
     9.3656   9.3657   9.3669   9.3671   9.3675   9.3676   9.3689   9.3690
     9.5572   9.5583

          k = 0.2500 0.0000 0.0000 (  6595 PWs)   bands (ev):

   -36.4092 -36.4092 -36.3871 -36.3871 -36.3780 -36.3780 -36.3720 -36.3720
   -17.1488 -17.1488 -17.1471 -17.1471 -17.1236 -17.1236 -17.0234 -17.0233
   -12.9578 -12.9577 -12.9576 -12.9575 -12.8995 -12.8994 -12.7814 -12.7813
   -12.7808 -12.7806 -12.7676 -12.7676 -12.6558 -12.6558 -12.6495 -12.6494
     1.8543   1.8544   3.8883   3.8884   3.8897   3.8898   4.4049   4.4049
     5.9931   5.9933   6.9897   6.9899   6.9901   6.9903   8.2404   8.2406
     8.6360   8.6361   8.6364   8.6364   8.7055   8.7064   9.6498   9.6501
     9.7905   9.7926

          k =-0.5000 0.0000 0.0000 (  6568 PWs)   bands (ev):

   -36.3998 -36.3998 -36.3953 -36.3953 -36.3780 -36.3780 -36.3733 -36.3733
   -17.1477 -17.1477 -17.1469 -17.1469 -17.0796 -17.0796 -17.0689 -17.0689
   -12.9387 -12.9387 -12.9386 -12.9386 -12.8078 -12.8078 -12.8038 -12.8038
   -12.7956 -12.7956 -12.7574 -12.7574 -12.7156 -12.7156 -12.7087 -12.7087
     2.1660   2.1660   3.9259   3.9259   3.9275   3.9275   4.4940   4.4940
     5.3887   5.3887   7.5433   7.5433   7.5439   7.5439   8.2154   8.2154
     8.4957   8.4957   8.4957   8.4957   9.1973   9.1973   9.6639   9.6640
    10.1749  10.1753

          k = 0.0000 0.2500-0.2500 (  6624 PWs)   bands (ev):

   -36.4055 -36.4055 -36.3859 -36.3859 -36.3823 -36.3823 -36.3725 -36.3725
   -17.1457 -17.1453 -17.1319 -17.1295 -17.1271 -17.1250 -17.0421 -17.0420
   -12.9278 -12.9271 -12.9234 -12.9217 -12.9171 -12.9162 -12.8106 -12.8103
   -12.7574 -12.7568 -12.7558 -12.7554 -12.7340 -12.7337 -12.6357 -12.6357
     2.2323   2.2328   3.6462   3.6468   3.7151   3.7157   4.2035   4.2048
     7.1226   7.1228   7.1315   7.1317   7.3164   7.3165   7.4508   7.4509
     8.5308   8.5309   8.5791   8.5792   8.6028   8.6031   9.6245   9.6245
     9.9165   9.9183

          k = 0.2500 0.0000-0.2500 (  6624 PWs)   bands (ev):

   -36.4053 -36.4053 -36.3873 -36.3873 -36.3806 -36.3806 -36.3730 -36.3730
   -17.1460 -17.1455 -17.1336 -17.1317 -17.1247 -17.1234 -17.0418 -17.0418
   -12.9476 -12.9475 -12.9231 -12.9228 -12.9014 -12.9012 -12.7859 -12.7856
   -12.7797 -12.7795 -12.7527 -12.7524 -12.7275 -12.7274 -12.6423 -12.6422
     2.1411   2.1413   3.5798   3.5800   3.9869   3.9877   4.3579   4.3587
     6.2867   6.2869   7.0602   7.0604   7.3403   7.3407   8.1129   8.1134
     8.5203   8.5229   8.5520   8.5526   8.5599   8.5615   9.6293   9.6296
     9.9197   9.9206

          k =-0.2500 0.0000-0.2500 (  6624 PWs)   bands (ev):

   -36.4054 -36.4054 -36.3873 -36.3873 -36.3806 -36.3806 -36.3730 -36.3730
   -17.1460 -17.1454 -17.1336 -17.1317 -17.1248 -17.1234 -17.0418 -17.0417
   -12.9477 -12.9475 -12.9232 -12.9231 -12.9015 -12.9014 -12.7856 -12.7854
   -12.7797 -12.7794 -12.7528 -12.7526 -12.7277 -12.7275 -12.6420 -12.6419
     2.1397   2.1400   3.5790   3.5791   3.9866   3.9874   4.3577   4.3585
     6.2884   6.2885   7.0578   7.0581   7.3439   7.3443   8.1212   8.1217
     8.5231   8.5253   8.5545   8.5560   8.5613   8.5645   9.6239   9.6242
     9.9173   9.9183

          k = 0.2500 0.0000 0.5000 (  6610 PWs)   bands (ev):

   -36.3992 -36.3992 -36.3896 -36.3896 -36.3837 -36.3837 -36.3737 -36.3737
   -17.1413 -17.1413 -17.1327 -17.1326 -17.0903 -17.0903 -17.0814 -17.0814
   -12.9206 -12.9204 -12.9172 -12.9169 -12.8405 -12.8403 -12.8356 -12.8354
   -12.7899 -12.7898 -12.7866 -12.7864 -12.6926 -12.6925 -12.6868 -12.6867
     2.8428   2.8430   2.8577   2.8579   4.1888   4.1889   4.2039   4.2042
     6.8335   6.8339   6.8396   6.8401   7.8993   7.8998   7.9039   7.9044
     8.4290   8.4291   8.4298   8.4299   9.1363   9.1366   9.1445   9.1447
    10.4890  10.4911

          k =-0.5000-0.2500 0.0000 (  6610 PWs)   bands (ev):

   -36.3981 -36.3981 -36.3928 -36.3928 -36.3805 -36.3805 -36.3748 -36.3748
   -17.1406 -17.1396 -17.1358 -17.1344 -17.0909 -17.0899 -17.0804 -17.0797
   -12.9405 -12.9404 -12.9206 -12.9204 -12.8400 -12.8396 -12.8085 -12.8082
   -12.7799 -12.7792 -12.7719 -12.7713 -12.7052 -12.7047 -12.7041 -12.7038
     2.3797   2.3799   3.5948   3.5949   4.0096   4.0103   4.4085   4.4092
     5.7409   5.7410   7.6684   7.6686   7.8997   7.8999   7.9413   7.9415
     8.3144   8.3145   8.5177   8.5179   9.1157   9.1159   9.1463   9.1464
    10.4443  10.4473

          k =-0.5000 0.0000 0.5000 (  6632 PWs)   bands (ev):

   -36.3962 -36.3962 -36.3867 -36.3867 -36.3867 -36.3867 -36.3766 -36.3766
   -17.1221 -17.1221 -17.1158 -17.1158 -17.1085 -17.1085 -17.1017 -17.1017
   -12.9053 -12.9053 -12.9044 -12.9044 -12.8775 -12.8775 -12.8758 -12.8758
   -12.7331 -12.7331 -12.7311 -12.7311 -12.7233 -12.7233 -12.7215 -12.7215
     2.9300   2.9300   2.9437   2.9437   4.1989   4.1989   4.2140   4.2140
     6.6457   6.6457   6.6462   6.6462   8.4769   8.4769   8.4777   8.4777
     8.5462   8.5463   8.5468   8.5468   8.6887   8.6887   8.6934   8.6935
    10.3884  10.3894

          k =-0.2500 0.2500-0.2500 (  6595 PWs)   bands (ev):

   -36.4023 -36.4023 -36.3875 -36.3875 -36.3823 -36.3823 -36.3741 -36.3741
   -17.1372 -17.1350 -17.1324 -17.1275 -17.1248 -17.1221 -17.0574 -17.0573
   -12.9362 -12.9359 -12.9240 -12.9231 -12.9141 -12.9136 -12.7882 -12.7880
   -12.7629 -12.7623 -12.7500 -12.7489 -12.7481 -12.7469 -12.6411 -12.6410
     2.3775   2.3780   3.6292   3.6297   3.6993   3.6999   4.1869   4.1881
     6.6202   6.6206   7.4313   7.4314   7.4473   7.4474   8.2007   8.2012
     8.4727   8.4730   8.5062   8.5063   8.5536   8.5536   9.6434   9.6441
     9.8564   9.8573

          k = 0.2500-0.2500-0.2500 (  6595 PWs)   bands (ev):

   -36.4023 -36.4023 -36.3875 -36.3875 -36.3823 -36.3823 -36.3741 -36.3741
   -17.1372 -17.1349 -17.1324 -17.1275 -17.1247 -17.1221 -17.0574 -17.0574
   -12.9362 -12.9359 -12.9239 -12.9229 -12.9139 -12.9136 -12.7883 -12.7882
   -12.7626 -12.7623 -12.7501 -12.7489 -12.7485 -12.7468 -12.6413 -12.6413
     2.3792   2.3794   3.6312   3.6329   3.6975   3.6999   4.1868   4.1868
     6.6191   6.6196   7.4270   7.4326   7.4416   7.4467   8.1950   8.1963
     8.4687   8.4704   8.5059   8.5066   8.5524   8.5537   9.6454   9.6454
     9.8584   9.8587

          k =-0.2500 0.2500 0.5000 (  6608 PWs)   bands (ev):

   -36.3979 -36.3979 -36.3883 -36.3883 -36.3850 -36.3850 -36.3750 -36.3750
   -17.1350 -17.1350 -17.1264 -17.1263 -17.0985 -17.0984 -17.0897 -17.0895
   -12.9319 -12.9317 -12.9282 -12.9280 -12.8741 -12.8734 -12.8697 -12.8691
   -12.7522 -12.7515 -12.7483 -12.7475 -12.6839 -12.6834 -12.6787 -12.6784
     2.9776   2.9781   2.9919   2.9925   3.8831   3.8836   3.8970   3.8975
     7.1891   7.1892   7.1941   7.1945   8.1254   8.1255   8.1264   8.1266
     8.4154   8.4156   8.4216   8.4219   9.2113   9.2118   9.2172   9.2176
     9.9318   9.9341

          k =-0.5000-0.2500 0.2500 (  6608 PWs)   bands (ev):

   -36.3972 -36.3972 -36.3910 -36.3910 -36.3823 -36.3823 -36.3757 -36.3757
   -17.1345 -17.1329 -17.1301 -17.1280 -17.0986 -17.0970 -17.0894 -17.0883
   -12.9442 -12.9441 -12.9290 -12.9289 -12.8769 -12.8767 -12.8527 -12.8525
   -12.7450 -12.7448 -12.7411 -12.7407 -12.6902 -12.6897 -12.6871 -12.6866
     2.5464   2.5469   3.6129   3.6135   3.6843   3.6849   4.1505   4.1515
     6.2393   6.2399   7.9088   7.9089   7.9684   7.9684   8.3554   8.3566
     8.3603   8.3615   8.3781   8.3783   9.2057   9.2067   9.2302   9.2312
     9.8297   9.8304

          k = 0.5000-0.2500-0.2500 (  6608 PWs)   bands (ev):

   -36.3972 -36.3972 -36.3910 -36.3910 -36.3823 -36.3823 -36.3757 -36.3757
   -17.1345 -17.1329 -17.1301 -17.1280 -17.0986 -17.0970 -17.0893 -17.0883
   -12.9442 -12.9440 -12.9291 -12.9288 -12.8769 -12.8768 -12.8527 -12.8526
   -12.7450 -12.7448 -12.7411 -12.7406 -12.6900 -12.6899 -12.6869 -12.6868
     2.5466   2.5466   3.6147   3.6150   3.6822   3.6838   4.1510   4.1510
     6.2397   6.2397   7.9083   7.9093   7.9680   7.9686   8.3571   8.3578
     8.3605   8.3605   8.3764   8.3776   9.2054   9.2055   9.2312   9.2313
     9.8304   9.8304

          k =-0.5000 0.2500 0.5000 (  6572 PWs)   bands (ev):

   -36.3962 -36.3962 -36.3867 -36.3867 -36.3867 -36.3867 -36.3766 -36.3766
   -17.1227 -17.1226 -17.1160 -17.1159 -17.1109 -17.1108 -17.1036 -17.1035
   -12.9291 -12.9289 -12.9261 -12.9252 -12.9126 -12.9115 -12.9084 -12.9082
   -12.7015 -12.7006 -12.7001 -12.6990 -12.6943 -12.6929 -12.6922 -12.6915
     3.0084   3.0090   3.0218   3.0224   3.8195   3.8202   3.8332   3.8339
     7.1737   7.1743   7.1751   7.1756   8.3355   8.3359   8.3369   8.3373
     8.9173   8.9180   8.9183   8.9189   9.0863   9.0870   9.0917   9.0923
     9.7743   9.7762

     the Fermi energy is     8.2982 ev

!    total energy              =   -2243.34941931 Ry
     Harris-Foulkes estimate   =   -2243.34941922 Ry
     estimated scf accuracy    <       0.00000014 Ry

     total all-electron energy =    -90247.692813 Ry

     The total energy is the sum of the following terms:

     one-electron contribution =     -67.94485539 Ry
     hartree contribution      =      49.13930580 Ry
     xc contribution           =    -253.75708610 Ry
     ewald contribution        =    -222.73000693 Ry
     one-center paw contrib.   =   -1748.05204061 Ry
     smearing contrib. (-TS)   =      -0.00473608 Ry

     convergence has been achieved in   7 iterations

     Writing output data file 2321.save
 
     init_run     :      1.90s CPU      2.88s WALL (       1 calls)
     electrons    :     23.48s CPU     25.25s WALL (       1 calls)

     Called by init_run:
     wfcinit      :      1.61s CPU      2.02s WALL (       1 calls)
     potinit      :      0.12s CPU      0.27s WALL (       1 calls)

     Called by electrons:
     c_bands      :     18.96s CPU     19.61s WALL (       8 calls)
     sum_band     :      3.08s CPU      3.21s WALL (       8 calls)
     v_of_rho     :      0.02s CPU      0.03s WALL (       8 calls)
     newd         :      0.62s CPU      0.70s WALL (       8 calls)
     PAW_pot      :      0.94s CPU      1.01s WALL (       8 calls)
     mix_rho      :      0.03s CPU      0.05s WALL (       8 calls)

     Called by c_bands:
     init_us_2    :      0.13s CPU      0.13s WALL (     408 calls)
     cegterg      :     17.44s CPU     18.06s WALL (     192 calls)

     Called by sum_band:
     sum_band:bec :      0.86s CPU      0.86s WALL (     192 calls)
     addusdens    :      0.14s CPU      0.16s WALL (       8 calls)

     Called by *egterg:
     h_psi        :     10.94s CPU     11.50s WALL (     747 calls)
     s_psi        :      1.29s CPU      1.29s WALL (     747 calls)
     g_psi        :      0.04s CPU      0.04s WALL (     531 calls)
     cdiaghg      :      3.95s CPU      4.29s WALL (     699 calls)

     Called by h_psi:
     h_psi:pot    :     10.80s CPU     11.36s WALL (     747 calls)
     h_psi:calbec :      0.71s CPU      0.76s WALL (     747 calls)
     vloc_psi     :      8.82s CPU      9.32s WALL (     747 calls)
     add_vuspsi   :      1.27s CPU      1.28s WALL (     747 calls)

     General routines
     calbec       :      0.94s CPU      1.00s WALL (     939 calls)
     fft          :      0.02s CPU      0.21s WALL (     154 calls)
     fftw         :      9.45s CPU      9.98s WALL (  143300 calls)
     davcio       :      0.00s CPU      0.00s WALL (      24 calls)
 
     Parallel routines
     fft_scatter  :      5.65s CPU      6.01s WALL (  143454 calls)
 
     PWSCF        :  0m26.31s CPU     1m41.53s WALL

 
   This run was terminated on:  10:54:24  16Nov2022            

=------------------------------------------------------------------------------=
   JOB DONE.
=------------------------------------------------------------------------------=
Removing 2321 from /home/shaharpit/tmp
