
     Program PWSCF v.6.1 (svn rev. 13369) starts on 16Nov2022 at 10:54: 6 

     This program is part of the open-source Quantum ESPRESSO suite
     for quantum simulation of materials; please cite
         "P. Giannozzi et al., J. Phys.:Condens. Matter 21 395502 (2009);
          URL http://www.quantum-espresso.org", 
     in publications or presentations arising from this work. More details at
     http://www.quantum-espresso.org/quote

     Parallel version (MPI), running on    32 processors
     R & G space division:  proc/nbgrp/npool/nimage =      32
     Reading input from ./fcc_75_0.9.in
Warning: card &IONS ignored
Warning: card 	ION_DYNAMICS='BFGS', ignored
Warning: card / ignored
Warning: card &CELL ignored
Warning: card / ignored

     Current dimensions of program PWSCF are:
     Max number of different atomic species (ntypx) = 10
     Max number of k-points (npk) =  40000
     Max angular momentum in pseudopotentials (lmaxx) =  3
               file Gd.rel-pbe-spdn-kjpaw_psl.1.0.0.UPF: wavefunction(s)  5P 5P renormalized
               file H.pbe-kjpaw_psl.0.1.UPF: wavefunction(s)  1S renormalized

     Subspace diagonalization in iterative solution of the eigenvalue problem:
     a serial algorithm will be used

 
     Parallelization info
     --------------------
     sticks:   dense  smooth     PW     G-vecs:    dense   smooth      PW
     Min          46      46     13                 1354     1354     213
     Max          47      47     14                 1359     1359     216
     Sum        1481    1481    437                43387    43387    6859
 


     bravais-lattice index     =            0
     lattice parameter (alat)  =       9.6754  a.u.
     unit-cell volume          =     905.7461 (a.u.)^3
     number of atoms/cell      =           10
     number of atomic types    =            2
     number of electrons       =        50.00
     number of Kohn-Sham states=           60
     kinetic-energy cutoff     =      50.0000  Ry
     charge density cutoff     =     200.0000  Ry
     convergence threshold     =      1.0E-06
     mixing beta               =       0.7000
     number of iterations used =            8  plain     mixing
     Exchange-correlation      =  SLA  PW   PBX  PBC ( 1  4  3  4 0 0)
     Non magnetic calculation with spin-orbit


     celldm(1)=   9.675398  celldm(2)=   0.000000  celldm(3)=   0.000000
     celldm(4)=   0.000000  celldm(5)=   0.000000  celldm(6)=   0.000000

     crystal axes: (cart. coord. in units of alat)
               a(1) = (   1.000000   0.000000   0.000000 )  
               a(2) = (   0.000000   1.000000   0.000000 )  
               a(3) = (   0.000000   0.000000   1.000000 )  

     reciprocal axes: (cart. coord. in units 2 pi/alat)
               b(1) = (  1.000000  0.000000  0.000000 )  
               b(2) = (  0.000000  1.000000  0.000000 )  
               b(3) = (  0.000000  0.000000  1.000000 )  


     PseudoPot. # 1 for Gd read from file:
     /home/shaharpit/MeamGdH/dft/qe_potentials/Gd.rel-pbe-spdn-kjpaw_psl.1.0.0.UPF
     MD5 check sum: cf50ec46d1536b4a0251694df1946a53
     Pseudo is Projector augmented-wave + core cor, Zval = 11.0
     Generated using "atomic" code by A. Dal Corso  v.6.2.2
     Shape of augmentation charge: PSQ
     Using radial grid of 1263 points, 10 beta functions with: 
                l(1) =   0
                l(2) =   0
                l(3) =   1
                l(4) =   1
                l(5) =   1
                l(6) =   1
                l(7) =   2
                l(8) =   2
                l(9) =   2
               l(10) =   2
     Q(r) pseudized with 0 coefficients 


     PseudoPot. # 2 for  H read from file:
     /home/shaharpit/MeamGdH/dft/qe_potentials/H.pbe-kjpaw_psl.0.1.UPF
     MD5 check sum: fbb168fef676c0aaadbafd73f5b1efa8
     Pseudo is Projector augmented-wave, Zval =  1.0
     Generated using "atomic" code by A. Dal Corso  v.5.0.2 svn rev. 9415
     Shape of augmentation charge: PSQ
     Using radial grid of  929 points,  2 beta functions with: 
                l(1) =   0
                l(2) =   0
     Q(r) pseudized with 0 coefficients 


     atomic species   valence    mass     pseudopotential
        Gd            11.00   157.25000     Gd( 1.00)
        H              1.00     1.00794      H( 1.00)

     No symmetry found



   Cartesian axes

     site n.     atom                  positions (alat units)
         1           Gd  tau(   1) = (   0.0000000   0.0000000   0.0000000  )
         2           Gd  tau(   2) = (   0.0000000   0.5000000   0.5000000  )
         3           Gd  tau(   3) = (   0.5000000   0.0000000   0.5000000  )
         4           Gd  tau(   4) = (   0.5000000   0.5000000   0.0000000  )
         5           H   tau(   5) = (   0.2500000   0.7539000   0.7539000  )
         6           H   tau(   6) = (   0.2500000   0.7501000   0.2500000  )
         7           H   tau(   7) = (   0.2500000   0.2500000   0.2500000  )
         8           H   tau(   8) = (   0.2500000   0.2500000   0.7501000  )
         9           H   tau(   9) = (   0.7501000   0.2500000   0.7501000  )
        10           H   tau(  10) = (   0.7501000   0.2500000   0.2500000  )

     number of k points=    36  gaussian smearing, width (Ry)=  0.0100
                       cart. coord. in units 2pi/alat
        k(    1) = (   0.0000000   0.0000000   0.0000000), wk =   0.0156250
        k(    2) = (   0.0000000   0.0000000   0.2500000), wk =   0.0312500
        k(    3) = (   0.0000000   0.0000000  -0.5000000), wk =   0.0156250
        k(    4) = (   0.0000000   0.2500000   0.2500000), wk =   0.0312500
        k(    5) = (   0.0000000   0.2500000  -0.5000000), wk =   0.0312500
        k(    6) = (   0.0000000  -0.5000000  -0.5000000), wk =   0.0156250
        k(    7) = (   0.2500000   0.2500000   0.2500000), wk =   0.0312500
        k(    8) = (   0.2500000   0.2500000  -0.5000000), wk =   0.0312500
        k(    9) = (   0.2500000  -0.5000000  -0.5000000), wk =   0.0312500
        k(   10) = (  -0.5000000  -0.5000000  -0.5000000), wk =   0.0156250
        k(   11) = (   0.2500000   0.0000000   0.0000000), wk =   0.0312500
        k(   12) = (   0.0000000   0.2500000   0.0000000), wk =   0.0312500
        k(   13) = (  -0.5000000   0.0000000   0.0000000), wk =   0.0156250
        k(   14) = (   0.0000000  -0.5000000   0.0000000), wk =   0.0156250
        k(   15) = (   0.0000000  -0.2500000   0.2500000), wk =   0.0312500
        k(   16) = (   0.2500000   0.0000000  -0.2500000), wk =   0.0312500
        k(   17) = (  -0.2500000   0.0000000  -0.2500000), wk =   0.0312500
        k(   18) = (   0.2500000  -0.2500000   0.0000000), wk =   0.0312500
        k(   19) = (  -0.2500000  -0.2500000   0.0000000), wk =   0.0312500
        k(   20) = (   0.2500000   0.0000000   0.5000000), wk =   0.0312500
        k(   21) = (  -0.5000000  -0.2500000   0.0000000), wk =   0.0312500
        k(   22) = (   0.0000000  -0.5000000   0.2500000), wk =   0.0312500
        k(   23) = (   0.2500000  -0.5000000   0.0000000), wk =   0.0312500
        k(   24) = (  -0.5000000   0.0000000   0.2500000), wk =   0.0312500
        k(   25) = (  -0.5000000   0.0000000   0.5000000), wk =   0.0156250
        k(   26) = (  -0.5000000   0.5000000   0.0000000), wk =   0.0156250
        k(   27) = (  -0.2500000  -0.2500000   0.2500000), wk =   0.0312500
        k(   28) = (  -0.2500000   0.2500000  -0.2500000), wk =   0.0312500
        k(   29) = (   0.2500000  -0.2500000  -0.2500000), wk =   0.0312500
        k(   30) = (  -0.2500000   0.2500000   0.5000000), wk =   0.0312500
        k(   31) = (  -0.5000000  -0.2500000   0.2500000), wk =   0.0312500
        k(   32) = (   0.5000000  -0.2500000  -0.2500000), wk =   0.0312500
        k(   33) = (  -0.2500000  -0.5000000   0.2500000), wk =   0.0312500
        k(   34) = (  -0.2500000   0.5000000  -0.2500000), wk =   0.0312500
        k(   35) = (  -0.5000000   0.2500000   0.5000000), wk =   0.0312500
        k(   36) = (  -0.5000000   0.5000000   0.2500000), wk =   0.0312500

     Dense  grid:    43387 G-vectors     FFT dimensions: (  45,  45,  45)

     Estimated max dynamical RAM per process >      18.89MB

     Estimated total allocated dynamical RAM >     604.37MB

     Initial potential from superposition of free atoms

     starting charge   49.92376, renormalised to   50.00000
     Starting wfc are  116 randomized atomic wfcs
     Checking if some PAW data can be deallocated... 

     total cpu time spent up to now is        8.4 secs

     per-process dynamical memory:    59.7 Mb

     Self-consistent Calculation

     iteration #  1     ecut=    50.00 Ry     beta=0.70
     Davidson diagonalization with overlap
     ethr =  1.00E-02,  avg # of iterations =  2.0

     total cpu time spent up to now is       15.9 secs

     total energy              =   -2245.72778262 Ry
     Harris-Foulkes estimate   =   -2246.07682800 Ry
     estimated scf accuracy    <       0.55765956 Ry

     iteration #  2     ecut=    50.00 Ry     beta=0.70
     Davidson diagonalization with overlap
     ethr =  1.12E-03,  avg # of iterations =  2.9

     total cpu time spent up to now is       24.3 secs

     total energy              =   -2245.80476085 Ry
     Harris-Foulkes estimate   =   -2245.92680571 Ry
     estimated scf accuracy    <       0.21986940 Ry

     iteration #  3     ecut=    50.00 Ry     beta=0.70
     Davidson diagonalization with overlap
     ethr =  4.40E-04,  avg # of iterations =  2.3

     total cpu time spent up to now is       32.7 secs

     total energy              =   -2245.86520611 Ry
     Harris-Foulkes estimate   =   -2245.88289214 Ry
     estimated scf accuracy    <       0.03880860 Ry

     iteration #  4     ecut=    50.00 Ry     beta=0.70
     Davidson diagonalization with overlap
     ethr =  7.76E-05,  avg # of iterations =  2.0

     total cpu time spent up to now is       40.1 secs

     total energy              =   -2245.87269773 Ry
     Harris-Foulkes estimate   =   -2245.87273700 Ry
     estimated scf accuracy    <       0.00024238 Ry

     iteration #  5     ecut=    50.00 Ry     beta=0.70
     Davidson diagonalization with overlap
     ethr =  4.85E-07,  avg # of iterations =  6.9

     total cpu time spent up to now is       52.7 secs

     total energy              =   -2245.87285502 Ry
     Harris-Foulkes estimate   =   -2245.87285651 Ry
     estimated scf accuracy    <       0.00003700 Ry

     iteration #  6     ecut=    50.00 Ry     beta=0.70
     Davidson diagonalization with overlap
     ethr =  7.40E-08,  avg # of iterations =  2.0

     total cpu time spent up to now is       60.9 secs

     total energy              =   -2245.87286031 Ry
     Harris-Foulkes estimate   =   -2245.87286130 Ry
     estimated scf accuracy    <       0.00000376 Ry

     iteration #  7     ecut=    50.00 Ry     beta=0.70
     Davidson diagonalization with overlap
     ethr =  7.51E-09,  avg # of iterations =  3.3

     total cpu time spent up to now is       69.3 secs

     total energy              =   -2245.87286078 Ry
     Harris-Foulkes estimate   =   -2245.87286161 Ry
     estimated scf accuracy    <       0.00000185 Ry

     iteration #  8     ecut=    50.00 Ry     beta=0.70
     Davidson diagonalization with overlap
     ethr =  3.71E-09,  avg # of iterations =  2.9

     total cpu time spent up to now is       77.6 secs

     End of self-consistent calculation

          k = 0.0000 0.0000 0.0000 (  5449 PWs)   bands (ev):

   -33.2697 -33.2697 -33.1823 -33.1823 -33.1752 -33.1752 -33.1662 -33.1662
   -14.1207 -14.1207 -14.1111 -14.1111 -14.0988 -14.0988 -13.7873 -13.7873
   -10.1490 -10.1490 -10.1276 -10.1276 -10.0894 -10.0894  -9.7141  -9.7141
    -9.7098  -9.7098  -9.7008  -9.7008  -9.3982  -9.3982  -9.3833  -9.3833
     2.9263   2.9263   5.1670   5.1670   5.6318   5.6318   6.0004   6.0004
     7.3951   7.3951   8.1268   8.1268   8.5180   8.5180   8.5209   8.5209
     8.5231   8.5231  11.1103  11.1103  11.8679  11.8679  11.8760  11.8760
    12.0391  12.0391  13.0992  13.0992

          k = 0.0000 0.0000 0.2500 (  5430 PWs)   bands (ev):

   -33.2561 -33.2561 -33.1900 -33.1900 -33.1795 -33.1795 -33.1676 -33.1676
   -14.1166 -14.1156 -14.1004 -14.0999 -14.0646 -14.0636 -13.8358 -13.8356
   -10.1103 -10.1101 -10.0602 -10.0601 -10.0346 -10.0334  -9.7688  -9.7682
    -9.7590  -9.7584  -9.6559  -9.6559  -9.5207  -9.5206  -9.4311  -9.4311
     3.4217   3.4219   5.4606   5.4615   5.8206   5.8209   5.8447   5.8450
     6.9909   6.9943   7.0814   7.0822   8.9882   8.9887   8.9925   8.9940
     9.4007   9.4008  10.7076  10.7078  11.2197  11.2199  12.1843  12.1844
    12.3271  12.3279  13.7007  13.7008

          k = 0.0000 0.0000-0.5000 (  5406 PWs)   bands (ev):

   -33.2284 -33.2284 -33.2167 -33.2167 -33.1801 -33.1801 -33.1680 -33.1680
   -14.1109 -14.1109 -14.1010 -14.1010 -13.9564 -13.9564 -13.9459 -13.9459
   -10.0380 -10.0380 -10.0302 -10.0302  -9.8420  -9.8420  -9.8339  -9.8339
    -9.7899  -9.7899  -9.7820  -9.7820  -9.5500  -9.5500  -9.5396  -9.5396
     4.6681   4.6681   4.6856   4.6856   6.1734   6.1734   6.1755   6.1755
     6.3621   6.3621   6.3706   6.3706   9.6871   9.6871   9.6888   9.6888
    10.0646  10.0646  10.0670  10.0670  11.8412  11.8412  11.8520  11.8520
    12.8884  12.8884  12.8933  12.8933

          k = 0.0000 0.2500 0.2500 (  5393 PWs)   bands (ev):

   -33.2446 -33.2446 -33.1899 -33.1899 -33.1869 -33.1869 -33.1718 -33.1718
   -14.1048 -14.1030 -14.0735 -14.0708 -14.0678 -14.0656 -13.8777 -13.8773
   -10.0802 -10.0794 -10.0306 -10.0283 -10.0156 -10.0153  -9.7659  -9.7650
    -9.7025  -9.7022  -9.6926  -9.6924  -9.6378  -9.6375  -9.4513  -9.4512
     3.8243   3.8245   5.6303   5.6308   5.8266   5.8269   5.9099   5.9109
     6.4859   6.4877   6.8537   6.8542   9.3777   9.3783   9.4405   9.4414
     9.6038   9.6048  10.6592  10.6596  10.9616  10.9617  12.1627  12.1628
    12.4818  12.4818  13.7128  13.7128

          k = 0.0000 0.2500-0.5000 (  5390 PWs)   bands (ev):

   -33.2217 -33.2217 -33.2100 -33.2100 -33.1868 -33.1868 -33.1746 -33.1746
   -14.0921 -14.0917 -14.0806 -14.0799 -13.9824 -13.9820 -13.9704 -13.9701
   -10.0473 -10.0468 -10.0239 -10.0239  -9.8626  -9.8622  -9.8559  -9.8543
    -9.7619  -9.7610  -9.7448  -9.7424  -9.5610  -9.5603  -9.5547  -9.5540
     4.8476   4.8480   4.8917   4.8921   5.9728   5.9732   6.0311   6.0358
     6.3361   6.3386   6.3479   6.3495   9.9975   9.9988  10.0462  10.0511
    10.1155  10.1200  10.1503  10.1508  11.4920  11.4921  11.5050  11.5054
    13.2308  13.2334  13.2683  13.2691

          k = 0.0000-0.5000-0.5000 (  5440 PWs)   bands (ev):

   -33.2091 -33.2091 -33.1993 -33.1993 -33.1980 -33.1980 -33.1865 -33.1865
   -14.0465 -14.0465 -14.0389 -14.0389 -14.0289 -14.0289 -14.0208 -14.0208
    -9.9932  -9.9932  -9.9923  -9.9923  -9.9542  -9.9542  -9.9529  -9.9529
    -9.6362  -9.6362  -9.6355  -9.6355  -9.6239  -9.6239  -9.6231  -9.6231
     5.1756   5.1756   5.1760   5.1760   5.6711   5.6711   5.6961   5.6961
     6.3579   6.3579   6.3584   6.3584  10.1369  10.1369  10.1392  10.1392
    10.8996  10.8996  10.9002  10.9002  10.9578  10.9578  10.9579  10.9579
    13.1355  13.1383  13.1414  13.1440

          k = 0.2500 0.2500 0.2500 (  5395 PWs)   bands (ev):

   -33.2350 -33.2350 -33.1939 -33.1939 -33.1868 -33.1868 -33.1774 -33.1774
   -14.0839 -14.0789 -14.0738 -14.0700 -14.0648 -14.0640 -13.9135 -13.9132
   -10.0635 -10.0624 -10.0421 -10.0400 -10.0222 -10.0210  -9.7536  -9.7528
    -9.6933  -9.6922  -9.6822  -9.6797  -9.6752  -9.6735  -9.4496  -9.4495
     4.0831   4.0834   5.3998   5.4009   5.6587   5.6603   5.9227   5.9238
     6.5578   6.5600   6.8973   6.8993   9.4404   9.4409   9.9027   9.9037
    10.0742  10.0752  10.6988  10.6992  10.9204  10.9205  12.1907  12.1909
    12.3976  12.3979  13.3388  13.3395

          k = 0.2500 0.2500-0.5000 (  5420 PWs)   bands (ev):

   -33.2167 -33.2167 -33.2057 -33.2057 -33.1917 -33.1917 -33.1788 -33.1788
   -14.0804 -14.0800 -14.0692 -14.0686 -14.0045 -14.0040 -13.9886 -13.9884
   -10.0695 -10.0692 -10.0387 -10.0380  -9.9408  -9.9399  -9.9154  -9.9146
    -9.6823  -9.6816  -9.6656  -9.6649  -9.5394  -9.5390  -9.5299  -9.5295
     4.6117   4.6126   5.1395   5.1450   5.2716   5.2774   5.8471   5.8489
     6.7266   6.7270   6.8083   6.8104  10.0884  10.0890  10.3136  10.3141
    10.4538  10.4541  10.6355  10.6358  11.5709  11.5719  11.5889  11.5899
    12.4424  12.4432  12.6318  12.6320

          k = 0.2500-0.5000-0.5000 (  5452 PWs)   bands (ev):

   -33.2090 -33.2090 -33.1992 -33.1992 -33.1979 -33.1979 -33.1864 -33.1864
   -14.0525 -14.0522 -14.0453 -14.0451 -14.0349 -14.0347 -14.0268 -14.0266
   -10.0477 -10.0474 -10.0446 -10.0442 -10.0062 -10.0055 -10.0021 -10.0014
    -9.5678  -9.5674  -9.5661  -9.5657  -9.5596  -9.5593  -9.5579  -9.5578
     4.7066   4.7077   4.7197   4.7208   5.4545   5.4561   5.4634   5.4649
     7.0168   7.0176   7.0290   7.0299  10.4363  10.4366  10.4406  10.4410
    11.2726  11.2729  11.2781  11.2785  11.4209  11.4212  11.4227  11.4231
    12.3239  12.3245  12.3277  12.3282

          k =-0.5000-0.5000-0.5000 (  5400 PWs)   bands (ev):

   -33.2089 -33.2089 -33.1991 -33.1991 -33.1978 -33.1978 -33.1863 -33.1863
   -14.0583 -14.0583 -14.0515 -14.0515 -14.0407 -14.0407 -14.0326 -14.0326
   -10.0878 -10.0878 -10.0854 -10.0854 -10.0442 -10.0442 -10.0402 -10.0402
    -9.5135  -9.5135  -9.5102  -9.5102  -9.5058  -9.5058  -9.5022  -9.5022
     4.4007   4.4007   4.4153   4.4153   5.3056   5.3056   5.3057   5.3057
     7.4788   7.4788   7.4919   7.4919  10.7597  10.7597  10.7598  10.7598
    11.7847  11.7847  11.7856  11.7856  11.8800  11.8800  11.8823  11.8823
    11.9928  11.9928  11.9948  11.9948

          k = 0.2500 0.0000 0.0000 (  5430 PWs)   bands (ev):

   -33.2561 -33.2561 -33.1921 -33.1921 -33.1751 -33.1751 -33.1700 -33.1700
   -14.1110 -14.1098 -14.1089 -14.1084 -14.0620 -14.0609 -13.8355 -13.8353
   -10.0991 -10.0980 -10.0924 -10.0923 -10.0177 -10.0165  -9.7615  -9.7609
    -9.7517  -9.7516  -9.6664  -9.6664  -9.5105  -9.5102  -9.4417  -9.4416
     3.4130   3.4133   5.4746   5.4754   5.6942   5.6945   6.1077   6.1079
     6.5692   6.5699   7.4922   7.4943   8.9812   8.9834   8.9862   8.9879
     9.1316   9.1351  10.9311  10.9313  11.1254  11.1255  12.1899  12.1900
    12.3325  12.3340  13.7154  13.7156

          k = 0.0000 0.2500 0.0000 (  5430 PWs)   bands (ev):

   -33.2561 -33.2561 -33.1906 -33.1906 -33.1786 -33.1786 -33.1680 -33.1680
   -14.1138 -14.1133 -14.1054 -14.1047 -14.0620 -14.0617 -13.8355 -13.8354
   -10.0992 -10.0990 -10.0921 -10.0916 -10.0172 -10.0170  -9.7622  -9.7615
    -9.7511  -9.7508  -9.6666  -9.6665  -9.5105  -9.5102  -9.4416  -9.4416
     3.4129   3.4133   5.4744   5.4752   5.6944   5.6946   6.1076   6.1079
     6.5695   6.5697   7.4924   7.4943   8.9812   8.9823   8.9863   8.9880
     9.1335   9.1338  10.9312  10.9313  11.1254  11.1254  12.1900  12.1901
    12.3329  12.3339  13.7154  13.7156

          k =-0.5000 0.0000 0.0000 (  5406 PWs)   bands (ev):

   -33.2249 -33.2249 -33.2217 -33.2217 -33.1750 -33.1750 -33.1717 -33.1717
   -14.1073 -14.1073 -14.1062 -14.1062 -13.9571 -13.9571 -13.9434 -13.9434
   -10.0465 -10.0465 -10.0419 -10.0419  -9.8279  -9.8279  -9.8226  -9.8226
    -9.8049  -9.8049  -9.7510  -9.7510  -9.5588  -9.5588  -9.5522  -9.5522
     4.3877   4.3877   5.0292   5.0292   6.1284   6.1284   6.1675   6.1675
     6.3755   6.3755   6.4265   6.4265   9.4110   9.4110   9.6869   9.6869
     9.6968   9.6968  10.6939  10.6939  11.5365  11.5365  12.0831  12.0831
    12.8800  12.8800  12.9207  12.9207

          k = 0.0000-0.5000 0.0000 (  5406 PWs)   bands (ev):

   -33.2281 -33.2281 -33.2174 -33.2174 -33.1793 -33.1793 -33.1684 -33.1684
   -14.1109 -14.1109 -14.1023 -14.1023 -13.9586 -13.9586 -13.9422 -13.9422
   -10.0482 -10.0482 -10.0402 -10.0402  -9.8291  -9.8291  -9.8212  -9.8212
    -9.8052  -9.8052  -9.7510  -9.7510  -9.5611  -9.5611  -9.5500  -9.5500
     4.3874   4.3874   5.0295   5.0295   6.1284   6.1284   6.1675   6.1675
     6.3733   6.3733   6.4290   6.4290   9.4108   9.4108   9.6869   9.6869
     9.6970   9.6970  10.6939  10.6939  11.5367  11.5367  12.0832  12.0832
    12.8799  12.8799  12.9212  12.9212

          k = 0.0000-0.2500 0.2500 (  5393 PWs)   bands (ev):

   -33.2446 -33.2446 -33.1899 -33.1899 -33.1869 -33.1869 -33.1718 -33.1718
   -14.1049 -14.1029 -14.0736 -14.0709 -14.0677 -14.0656 -13.8776 -13.8775
   -10.0804 -10.0793 -10.0302 -10.0288 -10.0156 -10.0153  -9.7656  -9.7654
    -9.7025  -9.7022  -9.6925  -9.6923  -9.6377  -9.6376  -9.4513  -9.4513
     3.8241   3.8247   5.6299   5.6307   5.8253   5.8271   5.9103   5.9118
     6.4867   6.4875   6.8540   6.8542   9.3774   9.3780   9.4401   9.4408
     9.6045   9.6050  10.6594  10.6595  10.9616  10.9616  12.1627  12.1628
    12.4807  12.4822  13.7125  13.7128

          k = 0.2500 0.0000-0.2500 (  5393 PWs)   bands (ev):

   -33.2445 -33.2445 -33.1925 -33.1925 -33.1835 -33.1835 -33.1727 -33.1727
   -14.1038 -14.1032 -14.0765 -14.0718 -14.0674 -14.0627 -13.8777 -13.8775
   -10.0803 -10.0793 -10.0300 -10.0288 -10.0160 -10.0141  -9.7662  -9.7653
    -9.7031  -9.7024  -9.6926  -9.6915  -9.6382  -9.6376  -9.4514  -9.4513
     3.8264   3.8268   5.6339   5.6366   5.8261   5.8280   5.9103   5.9106
     6.4818   6.4836   6.8482   6.8498   9.3763   9.3802   9.4385   9.4432
     9.5994   9.6006  10.6578  10.6583  10.9621  10.9622  12.1651  12.1654
    12.4825  12.4834  13.7122  13.7123

          k =-0.2500 0.0000-0.2500 (  5393 PWs)   bands (ev):

   -33.2445 -33.2445 -33.1925 -33.1925 -33.1834 -33.1834 -33.1727 -33.1727
   -14.1039 -14.1031 -14.0767 -14.0717 -14.0676 -14.0627 -13.8776 -13.8773
   -10.0803 -10.0793 -10.0306 -10.0294 -10.0163 -10.0145  -9.7658  -9.7649
    -9.7028  -9.7024  -9.6922  -9.6916  -9.6379  -9.6373  -9.4512  -9.4512
     3.8220   3.8224   5.6244   5.6269   5.8253   5.8273   5.9103   5.9106
     6.4899   6.4918   6.8584   6.8602   9.3758   9.3796   9.4384   9.4429
     9.6082   9.6095  10.6606  10.6610  10.9611  10.9612  12.1598  12.1601
    12.4801  12.4809  13.7131  13.7133

          k = 0.2500-0.2500 0.0000 (  5393 PWs)   bands (ev):

   -33.2446 -33.2446 -33.1926 -33.1926 -33.1830 -33.1830 -33.1730 -33.1730
   -14.1042 -14.1025 -14.0787 -14.0784 -14.0616 -14.0600 -13.8776 -13.8773
   -10.0816 -10.0802 -10.0462 -10.0454 -10.0007  -9.9999  -9.7564  -9.7559
    -9.7029  -9.7026  -9.6986  -9.6977  -9.6361  -9.6357  -9.4542  -9.4542
     3.8136   3.8140   5.6689   5.6745   5.7490   5.7545   6.0902   6.0915
     6.2139   6.2155   7.1300   7.1316   8.9605   8.9609   9.4254   9.4270
     9.8067   9.8074  10.7028  10.7030  10.9659  10.9659  12.1690  12.1694
    12.4777  12.4784  13.7242  13.7244

          k =-0.2500-0.2500 0.0000 (  5393 PWs)   bands (ev):

   -33.2445 -33.2445 -33.1932 -33.1932 -33.1825 -33.1825 -33.1730 -33.1730
   -14.1044 -14.1025 -14.0771 -14.0753 -14.0635 -14.0632 -13.8773 -13.8771
   -10.0811 -10.0798 -10.0431 -10.0425 -10.0054 -10.0046  -9.7569  -9.7565
    -9.7052  -9.7040  -9.6962  -9.6956  -9.6346  -9.6343  -9.4540  -9.4540
     3.8080   3.8083   5.6646   5.6699   5.7442   5.7494   6.0973   6.0984
     6.2177   6.2193   7.1382   7.1397   8.9587   8.9590   9.4285   9.4301
     9.8133   9.8139  10.7042  10.7044  10.9665  10.9666  12.1645  12.1648
    12.4757  12.4764  13.7249  13.7250

          k = 0.2500 0.0000 0.5000 (  5390 PWs)   bands (ev):

   -33.2217 -33.2217 -33.2100 -33.2100 -33.1868 -33.1868 -33.1746 -33.1746
   -14.0920 -14.0918 -14.0803 -14.0802 -13.9823 -13.9821 -13.9703 -13.9701
   -10.0472 -10.0470 -10.0240 -10.0238  -9.8628  -9.8618  -9.8555  -9.8544
    -9.7616  -9.7615  -9.7439  -9.7436  -9.5606  -9.5605  -9.5543  -9.5543
     4.8471   4.8474   4.8922   4.8925   5.9724   5.9730   6.0330   6.0336
     6.3321   6.3352   6.3512   6.3547   9.9982   9.9983  10.0487  10.0489
    10.1174  10.1177  10.1506  10.1507  11.4907  11.4910  11.5062  11.5064
    13.2319  13.2324  13.2689  13.2694

          k =-0.5000-0.2500 0.0000 (  5390 PWs)   bands (ev):

   -33.2185 -33.2185 -33.2151 -33.2151 -33.1819 -33.1819 -33.1776 -33.1776
   -14.0902 -14.0901 -14.0835 -14.0832 -13.9827 -13.9818 -13.9690 -13.9683
   -10.0541 -10.0534 -10.0293 -10.0286  -9.8737  -9.8735  -9.8336  -9.8332
    -9.7550  -9.7541  -9.7382  -9.7376  -9.5662  -9.5659  -9.5605  -9.5604
     4.6128   4.6130   5.1224   5.1234   5.8278   5.8297   6.2271   6.2292
     6.3694   6.3715   6.4214   6.4226   9.2503   9.2508  10.0623  10.0627
    10.0772  10.0773  10.8037  10.8037  11.4089  11.4089  11.5307  11.5307
    13.1825  13.1840  13.1978  13.1988

          k = 0.0000-0.5000 0.2500 (  5390 PWs)   bands (ev):

   -33.2213 -33.2213 -33.2108 -33.2108 -33.1859 -33.1859 -33.1750 -33.1750
   -14.0943 -14.0876 -14.0853 -14.0788 -13.9858 -13.9814 -13.9700 -13.9659
   -10.0548 -10.0522 -10.0283 -10.0247  -9.8742  -9.8723  -9.8369  -9.8362
    -9.7575  -9.7528  -9.7380  -9.7343  -9.5679  -9.5669  -9.5605  -9.5595
     4.6123   4.6124   5.2225   5.2237   5.8386   5.8387   6.0853   6.0868
     6.2911   6.2919   6.4166   6.4167   9.6531   9.6534  10.0578  10.0580
    10.0833  10.0839  10.4850  10.4852  11.4111  11.4111  11.5734  11.5735
    13.2433  13.2449  13.2604  13.2622

          k = 0.2500-0.5000 0.0000 (  5390 PWs)   bands (ev):

   -33.2213 -33.2213 -33.2108 -33.2108 -33.1859 -33.1859 -33.1750 -33.1750
   -14.0942 -14.0882 -14.0848 -14.0791 -13.9857 -13.9812 -13.9698 -13.9656
   -10.0554 -10.0522 -10.0309 -10.0270  -9.8742  -9.8730  -9.8337  -9.8326
    -9.7567  -9.7528  -9.7395  -9.7363  -9.5672  -9.5666  -9.5599  -9.5593
     4.6125   4.6127   5.1228   5.1236   5.8267   5.8306   6.2277   6.2285
     6.3666   6.3714   6.4226   6.4243   9.2502   9.2508  10.0624  10.0625
    10.0771  10.0776  10.8036  10.8037  11.4089  11.4090  11.5307  11.5308
    13.1838  13.1853  13.1961  13.1990

          k =-0.5000 0.0000 0.2500 (  5390 PWs)   bands (ev):

   -33.2185 -33.2185 -33.2151 -33.2151 -33.1819 -33.1819 -33.1776 -33.1776
   -14.0906 -14.0897 -14.0835 -14.0830 -13.9828 -13.9818 -13.9694 -13.9683
   -10.0536 -10.0533 -10.0267 -10.0265  -9.8732  -9.8730  -9.8382  -9.8352
    -9.7556  -9.7548  -9.7371  -9.7355  -9.5666  -9.5664  -9.5609  -9.5608
     4.6125   4.6127   5.2219   5.2238   5.8379   5.8393   6.0817   6.0900
     6.2865   6.2966   6.4161   6.4176   9.6534   9.6535  10.0573  10.0582
    10.0834  10.0839  10.4850  10.4852  11.4108  11.4110  11.5733  11.5735
    13.2424  13.2437  13.2607  13.2623

          k =-0.5000 0.0000 0.5000 (  5440 PWs)   bands (ev):

   -33.2091 -33.2091 -33.1993 -33.1993 -33.1980 -33.1980 -33.1865 -33.1865
   -14.0461 -14.0461 -14.0395 -14.0395 -14.0288 -14.0288 -14.0207 -14.0207
    -9.9947  -9.9947  -9.9912  -9.9912  -9.9555  -9.9555  -9.9510  -9.9510
    -9.6387  -9.6387  -9.6352  -9.6352  -9.6244  -9.6244  -9.6205  -9.6205
     5.1698   5.1698   5.1817   5.1817   5.6829   5.6829   5.6835   5.6835
     6.3508   6.3508   6.3662   6.3662  10.1377  10.1377  10.1386  10.1386
    10.8992  10.8992  10.9003  10.9003  10.9563  10.9563  10.9595  10.9595
    13.1327  13.1349  13.1359  13.1428

          k =-0.5000 0.5000 0.0000 (  5440 PWs)   bands (ev):

   -33.2092 -33.2092 -33.1996 -33.1996 -33.1977 -33.1977 -33.1864 -33.1864
   -14.0470 -14.0470 -14.0402 -14.0402 -14.0294 -14.0294 -14.0183 -14.0183
    -9.9958  -9.9958  -9.9949  -9.9949  -9.9745  -9.9745  -9.9294  -9.9294
    -9.6392  -9.6392  -9.6356  -9.6356  -9.6238  -9.6238  -9.6184  -9.6184
     5.1442   5.1442   5.2050   5.2050   5.2288   5.2288   6.3089   6.3089
     6.3826   6.3826   6.4002   6.4002   9.1303   9.1303  10.8598  10.8599
    10.8793  10.8793  10.8801  10.8801  10.9550  10.9550  11.0108  11.0108
    13.1030  13.1037  13.1282  13.1291

          k =-0.2500-0.2500 0.2500 (  5395 PWs)   bands (ev):

   -33.2350 -33.2350 -33.1939 -33.1939 -33.1868 -33.1868 -33.1774 -33.1774
   -14.0836 -14.0788 -14.0739 -14.0698 -14.0649 -14.0641 -13.9136 -13.9133
   -10.0637 -10.0616 -10.0417 -10.0391 -10.0224 -10.0208  -9.7541  -9.7533
    -9.6937  -9.6930  -9.6821  -9.6796  -9.6753  -9.6734  -9.4497  -9.4497
     4.0882   4.0890   5.4075   5.4101   5.6549   5.6571   5.9258   5.9270
     6.5487   6.5505   6.8886   6.8894   9.4408   9.4412   9.8995   9.9004
    10.0714  10.0720  10.6987  10.6990  10.9212  10.9213  12.1922  12.1928
    12.3992  12.4000  13.3362  13.3382

          k =-0.2500 0.2500-0.2500 (  5395 PWs)   bands (ev):

   -33.2351 -33.2351 -33.1933 -33.1933 -33.1868 -33.1868 -33.1778 -33.1778
   -14.0844 -14.0806 -14.0751 -14.0706 -14.0639 -14.0601 -13.9138 -13.9135
   -10.0668 -10.0648 -10.0427 -10.0399 -10.0180 -10.0169  -9.7529  -9.7521
    -9.6909  -9.6894  -9.6826  -9.6815  -9.6780  -9.6771  -9.4499  -9.4498
     4.0904   4.0912   5.3956   5.3981   5.6657   5.6678   5.9216   5.9229
     6.5569   6.5585   6.8839   6.8847   9.4403   9.4408   9.9018   9.9026
    10.0703  10.0710  10.6983  10.6986  10.9202  10.9203  12.1921  12.1927
    12.3990  12.3998  13.3370  13.3389

          k = 0.2500-0.2500-0.2500 (  5395 PWs)   bands (ev):

   -33.2351 -33.2351 -33.1933 -33.1933 -33.1868 -33.1868 -33.1778 -33.1778
   -14.0842 -14.0805 -14.0750 -14.0706 -14.0641 -14.0601 -13.9139 -13.9136
   -10.0661 -10.0649 -10.0419 -10.0396 -10.0178 -10.0170  -9.7534  -9.7526
    -9.6913  -9.6900  -9.6824  -9.6815  -9.6783  -9.6771  -9.4500  -9.4499
     4.0960   4.0963   5.4050   5.4062   5.6626   5.6643   5.9248   5.9260
     6.5463   6.5484   6.8742   6.8762   9.4407   9.4413   9.8988   9.8998
    10.0671  10.0681  10.6982  10.6985  10.9211  10.9212  12.1942  12.1943
    12.4013  12.4016  13.3363  13.3370

          k =-0.2500 0.2500 0.5000 (  5420 PWs)   bands (ev):

   -33.2173 -33.2173 -33.2051 -33.2051 -33.1911 -33.1911 -33.1794 -33.1794
   -14.0826 -14.0823 -14.0668 -14.0661 -14.0027 -14.0022 -13.9907 -13.9904
   -10.0726 -10.0723 -10.0346 -10.0338  -9.9413  -9.9403  -9.9153  -9.9143
    -9.6795  -9.6788  -9.6690  -9.6682  -9.5380  -9.5375  -9.5320  -9.5316
     4.6296   4.6304   5.1339   5.1403   5.2656   5.2722   5.8509   5.8530
     6.7080   6.7087   6.8101   6.8122  10.0862  10.0868  10.3142  10.3147
    10.4528  10.4531  10.6361  10.6364  11.5682  11.5690  11.5939  11.5947
    12.4425  12.4433  12.6320  12.6324

          k =-0.5000-0.2500 0.2500 (  5420 PWs)   bands (ev):

   -33.2144 -33.2144 -33.2103 -33.2103 -33.1868 -33.1868 -33.1814 -33.1814
   -14.0791 -14.0779 -14.0724 -14.0718 -14.0023 -14.0007 -13.9904 -13.9889
   -10.0676 -10.0668 -10.0488 -10.0480  -9.9402  -9.9395  -9.9090  -9.9068
    -9.6743  -9.6739  -9.6669  -9.6664  -9.5391  -9.5389  -9.5364  -9.5363
     4.6315   4.6323   4.9149   4.9155   5.5227   5.5236   5.8795   5.8802
     6.7374   6.7388   6.7738   6.7753   9.7302   9.7304  10.4374  10.4377
    10.4856  10.4858  10.7626  10.7627  11.5531  11.5536  11.6118  11.6119
    12.4763  12.4763  12.5676  12.5692

          k = 0.5000-0.2500-0.2500 (  5420 PWs)   bands (ev):

   -33.2144 -33.2144 -33.2103 -33.2103 -33.1868 -33.1868 -33.1814 -33.1814
   -14.0790 -14.0779 -14.0725 -14.0717 -14.0022 -14.0009 -13.9904 -13.9890
   -10.0675 -10.0668 -10.0487 -10.0482  -9.9400  -9.9398  -9.9088  -9.9070
    -9.6745  -9.6738  -9.6670  -9.6664  -9.5391  -9.5389  -9.5364  -9.5362
     4.6317   4.6318   4.9147   4.9162   5.5225   5.5239   5.8791   5.8808
     6.7364   6.7374   6.7739   6.7769   9.7301   9.7304  10.4372  10.4379
    10.4855  10.4856  10.7625  10.7628  11.5531  11.5532  11.6120  11.6120
    12.4767  12.4768  12.5687  12.5688

          k =-0.2500-0.5000 0.2500 (  5420 PWs)   bands (ev):

   -33.2167 -33.2167 -33.2063 -33.2063 -33.1904 -33.1904 -33.1794 -33.1794
   -14.0825 -14.0762 -14.0736 -14.0676 -14.0054 -14.0004 -13.9912 -13.9866
   -10.0682 -10.0656 -10.0499 -10.0463  -9.9415  -9.9383  -9.9096  -9.9068
    -9.6764  -9.6724  -9.6685  -9.6646  -9.5407  -9.5401  -9.5354  -9.5350
     4.6354   4.6367   4.9185   4.9190   5.5193   5.5207   5.8803   5.8818
     6.7287   6.7314   6.7722   6.7744   9.7304   9.7310  10.4370  10.4372
    10.4852  10.4855  10.7627  10.7629  11.5551  11.5553  11.6111  11.6114
    12.4767  12.4773  12.5681  12.5685

          k =-0.2500 0.5000-0.2500 (  5420 PWs)   bands (ev):

   -33.2167 -33.2167 -33.2063 -33.2063 -33.1904 -33.1904 -33.1794 -33.1794
   -14.0827 -14.0762 -14.0739 -14.0676 -14.0054 -14.0002 -13.9911 -13.9863
   -10.0687 -10.0662 -10.0505 -10.0469  -9.9416  -9.9382  -9.9090  -9.9061
    -9.6760  -9.6718  -9.6686  -9.6647  -9.5405  -9.5400  -9.5354  -9.5347
     4.6265   4.6278   4.9120   4.9125   5.5259   5.5271   5.8780   5.8795
     6.7415   6.7441   6.7775   6.7796   9.7294   9.7300  10.4379  10.4381
    10.4859  10.4861  10.7624  10.7626  11.5512  11.5514  11.6125  11.6128
    12.4761  12.4767  12.5687  12.5691

          k =-0.5000 0.2500 0.5000 (  5452 PWs)   bands (ev):

   -33.2090 -33.2090 -33.1992 -33.1992 -33.1979 -33.1979 -33.1864 -33.1864
   -14.0523 -14.0520 -14.0456 -14.0454 -14.0348 -14.0347 -14.0268 -14.0265
   -10.0482 -10.0474 -10.0445 -10.0441 -10.0063 -10.0060 -10.0017 -10.0009
    -9.5685  -9.5678  -9.5673  -9.5657  -9.5595  -9.5580  -9.5577  -9.5570
     4.7063   4.7071   4.7202   4.7210   5.4594   5.4594   5.4600   5.4600
     7.0160   7.0172   7.0296   7.0307  10.4369  10.4369  10.4405  10.4405
    11.2727  11.2735  11.2777  11.2778  11.4212  11.4214  11.4226  11.4228
    12.3244  12.3249  12.3275  12.3279

          k =-0.5000 0.5000 0.2500 (  5452 PWs)   bands (ev):

   -33.2090 -33.2090 -33.1994 -33.1994 -33.1977 -33.1977 -33.1864 -33.1864
   -14.0531 -14.0519 -14.0474 -14.0440 -14.0374 -14.0332 -14.0264 -14.0245
   -10.0487 -10.0483 -10.0467 -10.0447 -10.0158 -10.0155  -9.9925  -9.9891
    -9.5687  -9.5675  -9.5670  -9.5662  -9.5591  -9.5579  -9.5570  -9.5564
     4.7093   4.7110   4.7250   4.7267   5.1435   5.1448   5.8358   5.8370
     7.0240   7.0245   7.0345   7.0349   9.8371   9.8372  10.9370  10.9373
    11.2812  11.2815  11.3024  11.3026  11.3198  11.3199  11.4790  11.4792
    12.2514  12.2520  12.2556  12.2565

     the Fermi energy is    10.6136 ev

!    total energy              =   -2245.87286114 Ry
     Harris-Foulkes estimate   =   -2245.87286118 Ry
     estimated scf accuracy    <       0.00000005 Ry

     total all-electron energy =    -90250.216247 Ry

     The total energy is the sum of the following terms:

     one-electron contribution =     -40.51211236 Ry
     hartree contribution      =      42.06475714 Ry
     xc contribution           =    -256.10423555 Ry
     ewald contribution        =    -243.24445158 Ry
     one-center paw contrib.   =   -1748.07377565 Ry
     smearing contrib. (-TS)   =      -0.00304313 Ry

     convergence has been achieved in   8 iterations

     Writing output data file 2322.save
 
     init_run     :      4.35s CPU      5.87s WALL (       1 calls)
     electrons    :     57.88s CPU     69.84s WALL (       1 calls)

     Called by init_run:
     wfcinit      :      4.06s CPU      4.75s WALL (       1 calls)
     potinit      :      0.12s CPU      0.36s WALL (       1 calls)

     Called by electrons:
     c_bands      :     47.95s CPU     56.50s WALL (       8 calls)
     sum_band     :      7.53s CPU      9.45s WALL (       8 calls)
     v_of_rho     :      0.02s CPU      0.04s WALL (       9 calls)
     newd         :      0.74s CPU      0.93s WALL (       9 calls)
     PAW_pot      :      1.51s CPU      1.93s WALL (       9 calls)
     mix_rho      :      0.08s CPU      0.14s WALL (       8 calls)

     Called by c_bands:
     init_us_2    :      0.16s CPU      0.17s WALL (     612 calls)
     cegterg      :     45.86s CPU     54.05s WALL (     288 calls)

     Called by sum_band:
     sum_band:bec :      1.30s CPU      1.33s WALL (     288 calls)
     addusdens    :      0.17s CPU      0.20s WALL (       8 calls)

     Called by *egterg:
     h_psi        :     28.76s CPU     34.41s WALL (    1199 calls)
     s_psi        :      1.77s CPU      1.84s WALL (    1199 calls)
     g_psi        :      0.06s CPU      0.06s WALL (     875 calls)
     cdiaghg      :     10.83s CPU     12.36s WALL (    1163 calls)

     Called by h_psi:
     h_psi:pot    :     28.60s CPU     34.24s WALL (    1199 calls)
     h_psi:calbec :      1.30s CPU      1.51s WALL (    1199 calls)
     vloc_psi     :     25.39s CPU     30.81s WALL (    1199 calls)
     add_vuspsi   :      1.90s CPU      1.92s WALL (    1199 calls)

     General routines
     calbec       :      1.76s CPU      2.04s WALL (    1487 calls)
     fft          :      0.09s CPU      0.36s WALL (     167 calls)
     fftw         :     29.22s CPU     36.35s WALL (  227392 calls)
     davcio       :      0.00s CPU      0.01s WALL (      36 calls)
 
     Parallel routines
     fft_scatter  :     21.51s CPU     28.32s WALL (  227559 calls)
 
     PWSCF        :  1m 3.29s CPU     2m46.43s WALL

 
   This run was terminated on:  10:56:52  16Nov2022            

=------------------------------------------------------------------------------=
   JOB DONE.
=------------------------------------------------------------------------------=
Removing 2322 from /home/shaharpit/tmp
