
     Program PWSCF v.6.1 (svn rev. 13369) starts on 30Nov2022 at 13:42:31 

     This program is part of the open-source Quantum ESPRESSO suite
     for quantum simulation of materials; please cite
         "P. Giannozzi et al., J. Phys.:Condens. Matter 21 395502 (2009);
          URL http://www.quantum-espresso.org", 
     in publications or presentations arising from this work. More details at
     http://www.quantum-espresso.org/quote

     Parallel version (MPI), running on     4 processors
     R & G space division:  proc/nbgrp/npool/nimage =       4
     Reading input from ./fcc_75_1.in
Warning: card &IONS ignored
Warning: card 	ION_DYNAMICS='BFGS', ignored
Warning: card / ignored
Warning: card &CELL ignored
Warning: card / ignored

     Current dimensions of program PWSCF are:
     Max number of different atomic species (ntypx) = 10
     Max number of k-points (npk) =  40000
     Max angular momentum in pseudopotentials (lmaxx) =  3
               file Gd.rel-pbe-spdn-kjpaw_psl.1.0.0.UPF: wavefunction(s)  5P 5P renormalized
               file H.pbe-kjpaw_psl.0.1.UPF: wavefunction(s)  1S renormalized

     Subspace diagonalization in iterative solution of the eigenvalue problem:
     a serial algorithm will be used

 
     Parallelization info
     --------------------
     sticks:   dense  smooth     PW     G-vecs:    dense   smooth      PW
     Min         399     399    115                11983    11983    1873
     Max         400     400    117                11986    11986    1875
     Sum        1597    1597    465                47937    47937    7497
 


     bravais-lattice index     =            0
     lattice parameter (alat)  =      10.0212  a.u.
     unit-cell volume          =    1006.3788 (a.u.)^3
     number of atoms/cell      =           10
     number of atomic types    =            2
     number of electrons       =        50.00
     number of Kohn-Sham states=           60
     kinetic-energy cutoff     =      50.0000  Ry
     charge density cutoff     =     200.0000  Ry
     convergence threshold     =      1.0E-06
     mixing beta               =       0.7000
     number of iterations used =            8  plain     mixing
     Exchange-correlation      =  SLA  PW   PBX  PBC ( 1  4  3  4 0 0)
     Non magnetic calculation with spin-orbit


     celldm(1)=  10.021218  celldm(2)=   0.000000  celldm(3)=   0.000000
     celldm(4)=   0.000000  celldm(5)=   0.000000  celldm(6)=   0.000000

     crystal axes: (cart. coord. in units of alat)
               a(1) = (   1.000000   0.000000   0.000000 )  
               a(2) = (   0.000000   1.000000   0.000000 )  
               a(3) = (   0.000000   0.000000   1.000000 )  

     reciprocal axes: (cart. coord. in units 2 pi/alat)
               b(1) = (  1.000000  0.000000  0.000000 )  
               b(2) = (  0.000000  1.000000  0.000000 )  
               b(3) = (  0.000000  0.000000  1.000000 )  


     PseudoPot. # 1 for Gd read from file:
     /home/shaharpit/MeamGdH/dft/qe_potentials/Gd.rel-pbe-spdn-kjpaw_psl.1.0.0.UPF
     MD5 check sum: cf50ec46d1536b4a0251694df1946a53
     Pseudo is Projector augmented-wave + core cor, Zval = 11.0
     Generated using "atomic" code by A. Dal Corso  v.6.2.2
     Shape of augmentation charge: PSQ
     Using radial grid of 1263 points, 10 beta functions with: 
                l(1) =   0
                l(2) =   0
                l(3) =   1
                l(4) =   1
                l(5) =   1
                l(6) =   1
                l(7) =   2
                l(8) =   2
                l(9) =   2
               l(10) =   2
     Q(r) pseudized with 0 coefficients 


     PseudoPot. # 2 for  H read from file:
     /home/shaharpit/MeamGdH/dft/qe_potentials/H.pbe-kjpaw_psl.0.1.UPF
     MD5 check sum: fbb168fef676c0aaadbafd73f5b1efa8
     Pseudo is Projector augmented-wave, Zval =  1.0
     Generated using "atomic" code by A. Dal Corso  v.5.0.2 svn rev. 9415
     Shape of augmentation charge: PSQ
     Using radial grid of  929 points,  2 beta functions with: 
                l(1) =   0
                l(2) =   0
     Q(r) pseudized with 0 coefficients 


     atomic species   valence    mass     pseudopotential
        Gd            11.00   157.25000     Gd( 1.00)
        H              1.00     1.00794      H( 1.00)

     No symmetry found



   Cartesian axes

     site n.     atom                  positions (alat units)
         1           Gd  tau(   1) = (   0.0000000   0.0000000   0.0000000  )
         2           Gd  tau(   2) = (   0.0000000   0.5000000   0.5000000  )
         3           Gd  tau(   3) = (   0.5000000   0.0000000   0.5000000  )
         4           Gd  tau(   4) = (   0.5000000   0.5000000   0.0000000  )
         5           H   tau(   5) = (   0.2500000   0.7539000   0.7539000  )
         6           H   tau(   6) = (   0.2500000   0.7501000   0.2500000  )
         7           H   tau(   7) = (   0.2500000   0.2500000   0.2500000  )
         8           H   tau(   8) = (   0.2500000   0.2500000   0.7501000  )
         9           H   tau(   9) = (   0.7501000   0.2500000   0.7501000  )
        10           H   tau(  10) = (   0.7501000   0.2500000   0.2500000  )

     number of k points=    36  gaussian smearing, width (Ry)=  0.0100
                       cart. coord. in units 2pi/alat
        k(    1) = (   0.0000000   0.0000000   0.0000000), wk =   0.0156250
        k(    2) = (   0.0000000   0.0000000   0.2500000), wk =   0.0312500
        k(    3) = (   0.0000000   0.0000000  -0.5000000), wk =   0.0156250
        k(    4) = (   0.0000000   0.2500000   0.2500000), wk =   0.0312500
        k(    5) = (   0.0000000   0.2500000  -0.5000000), wk =   0.0312500
        k(    6) = (   0.0000000  -0.5000000  -0.5000000), wk =   0.0156250
        k(    7) = (   0.2500000   0.2500000   0.2500000), wk =   0.0312500
        k(    8) = (   0.2500000   0.2500000  -0.5000000), wk =   0.0312500
        k(    9) = (   0.2500000  -0.5000000  -0.5000000), wk =   0.0312500
        k(   10) = (  -0.5000000  -0.5000000  -0.5000000), wk =   0.0156250
        k(   11) = (   0.2500000   0.0000000   0.0000000), wk =   0.0312500
        k(   12) = (   0.0000000   0.2500000   0.0000000), wk =   0.0312500
        k(   13) = (  -0.5000000   0.0000000   0.0000000), wk =   0.0156250
        k(   14) = (   0.0000000  -0.5000000   0.0000000), wk =   0.0156250
        k(   15) = (   0.0000000  -0.2500000   0.2500000), wk =   0.0312500
        k(   16) = (   0.2500000   0.0000000  -0.2500000), wk =   0.0312500
        k(   17) = (  -0.2500000   0.0000000  -0.2500000), wk =   0.0312500
        k(   18) = (   0.2500000  -0.2500000   0.0000000), wk =   0.0312500
        k(   19) = (  -0.2500000  -0.2500000   0.0000000), wk =   0.0312500
        k(   20) = (   0.2500000   0.0000000   0.5000000), wk =   0.0312500
        k(   21) = (  -0.5000000  -0.2500000   0.0000000), wk =   0.0312500
        k(   22) = (   0.0000000  -0.5000000   0.2500000), wk =   0.0312500
        k(   23) = (   0.2500000  -0.5000000   0.0000000), wk =   0.0312500
        k(   24) = (  -0.5000000   0.0000000   0.2500000), wk =   0.0312500
        k(   25) = (  -0.5000000   0.0000000   0.5000000), wk =   0.0156250
        k(   26) = (  -0.5000000   0.5000000   0.0000000), wk =   0.0156250
        k(   27) = (  -0.2500000  -0.2500000   0.2500000), wk =   0.0312500
        k(   28) = (  -0.2500000   0.2500000  -0.2500000), wk =   0.0312500
        k(   29) = (   0.2500000  -0.2500000  -0.2500000), wk =   0.0312500
        k(   30) = (  -0.2500000   0.2500000   0.5000000), wk =   0.0312500
        k(   31) = (  -0.5000000  -0.2500000   0.2500000), wk =   0.0312500
        k(   32) = (   0.5000000  -0.2500000  -0.2500000), wk =   0.0312500
        k(   33) = (  -0.2500000  -0.5000000   0.2500000), wk =   0.0312500
        k(   34) = (  -0.2500000   0.5000000  -0.2500000), wk =   0.0312500
        k(   35) = (  -0.5000000   0.2500000   0.5000000), wk =   0.0312500
        k(   36) = (  -0.5000000   0.5000000   0.2500000), wk =   0.0312500

     Dense  grid:    47937 G-vectors     FFT dimensions: (  45,  45,  45)

     Estimated max dynamical RAM per process >     149.59MB

     Estimated total allocated dynamical RAM >     598.35MB

     Check: negative/imaginary core charge=   -0.000002    0.000000

     Initial potential from superposition of free atoms

     starting charge   49.92376, renormalised to   50.00000
     Starting wfc are  116 randomized atomic wfcs
     Checking if some PAW data can be deallocated... 

     total cpu time spent up to now is       11.4 secs

     per-process dynamical memory:   171.0 Mb

     Self-consistent Calculation

     iteration #  1     ecut=    50.00 Ry     beta=0.70
     Davidson diagonalization with overlap
     ethr =  1.00E-02,  avg # of iterations =  2.0

     total cpu time spent up to now is       28.1 secs

     total energy              =   -2245.75781533 Ry
     Harris-Foulkes estimate   =   -2246.08001907 Ry
     estimated scf accuracy    <       0.51710300 Ry

     iteration #  2     ecut=    50.00 Ry     beta=0.70
     Davidson diagonalization with overlap
     ethr =  1.03E-03,  avg # of iterations =  2.9

     total cpu time spent up to now is       46.2 secs

     total energy              =   -2245.83568793 Ry
     Harris-Foulkes estimate   =   -2245.93464725 Ry
     estimated scf accuracy    <       0.17547457 Ry

     iteration #  3     ecut=    50.00 Ry     beta=0.70
     Davidson diagonalization with overlap
     ethr =  3.51E-04,  avg # of iterations =  2.6

     total cpu time spent up to now is       64.7 secs

     total energy              =   -2245.88274848 Ry
     Harris-Foulkes estimate   =   -2245.90026663 Ry
     estimated scf accuracy    <       0.03878058 Ry

     iteration #  4     ecut=    50.00 Ry     beta=0.70
     Davidson diagonalization with overlap
     ethr =  7.76E-05,  avg # of iterations =  2.0

     total cpu time spent up to now is       81.2 secs

     total energy              =   -2245.89051466 Ry
     Harris-Foulkes estimate   =   -2245.89053141 Ry
     estimated scf accuracy    <       0.00022155 Ry

     iteration #  5     ecut=    50.00 Ry     beta=0.70
     Davidson diagonalization with overlap
     ethr =  4.43E-07,  avg # of iterations =  6.4

     total cpu time spent up to now is      135.2 secs

     total energy              =   -2245.89068315 Ry
     Harris-Foulkes estimate   =   -2245.89069609 Ry
     estimated scf accuracy    <       0.00004346 Ry

     iteration #  6     ecut=    50.00 Ry     beta=0.70
     Davidson diagonalization with overlap
     ethr =  8.69E-08,  avg # of iterations =  2.0

     total cpu time spent up to now is      212.1 secs

     total energy              =   -2245.89069212 Ry
     Harris-Foulkes estimate   =   -2245.89069181 Ry
     estimated scf accuracy    <       0.00000215 Ry

     iteration #  7     ecut=    50.00 Ry     beta=0.70
     Davidson diagonalization with overlap
     ethr =  4.30E-09,  avg # of iterations =  3.5

     total cpu time spent up to now is      228.6 secs

     End of self-consistent calculation

          k = 0.0000 0.0000 0.0000 (  6031 PWs)   bands (ev):

   -34.8280 -34.8280 -34.7757 -34.7757 -34.7702 -34.7702 -34.7631 -34.7631
   -15.6222 -15.6222 -15.6155 -15.6155 -15.6067 -15.6067 -15.3971 -15.3971
   -11.5460 -11.5460 -11.5316 -11.5316 -11.4982 -11.4982 -11.2427 -11.2427
   -11.2347 -11.2347 -11.2272 -11.2272 -11.0173 -11.0173 -11.0018 -11.0018
     1.9788   1.9788   4.2977   4.2977   4.6549   4.6549   4.9768   4.9768
     5.9064   5.9064   6.7776   6.7776   7.5349   7.5349   7.5384   7.5384
     7.5407   7.5407   9.6393   9.6393  10.5656  10.5656  10.5740  10.5740
    10.7351  10.7351  11.7103  11.7103

          k = 0.0000 0.0000 0.2500 (  6023 PWs)   bands (ev):

   -34.8198 -34.8198 -34.7796 -34.7796 -34.7735 -34.7735 -34.7641 -34.7641
   -15.6201 -15.6194 -15.6085 -15.6081 -15.5840 -15.5832 -15.4297 -15.4296
   -11.5161 -11.5159 -11.4756 -11.4755 -11.4640 -11.4631 -11.2803 -11.2799
   -11.2677 -11.2673 -11.1952 -11.1951 -11.1009 -11.1008 -11.0355 -11.0355
     2.4070   2.4072   4.5100   4.5108   4.6678   4.6680   4.8462   4.8464
     5.6429   5.6449   5.9255   5.9257   7.9561   7.9565   7.9596   7.9606
     8.3397   8.3398   9.3526   9.3529   9.9703   9.9704  10.8386  10.8386
    10.9760  10.9769  12.2220  12.2221

          k = 0.0000 0.0000-0.5000 (  5942 PWs)   bands (ev):

   -34.8038 -34.8038 -34.7946 -34.7946 -34.7741 -34.7741 -34.7644 -34.7644
   -15.6171 -15.6171 -15.6090 -15.6090 -15.5117 -15.5117 -15.5031 -15.5031
   -11.4602 -11.4602 -11.4537 -11.4537 -11.3286 -11.3286 -11.3220 -11.3220
   -11.2896 -11.2896 -11.2830 -11.2830 -11.1200 -11.1200 -11.1118 -11.1118
     3.5097   3.5097   3.5259   3.5259   5.0424   5.0424   5.0441   5.0441
     5.3043   5.3043   5.3162   5.3162   8.5852   8.5852   8.5868   8.5868
     8.9096   8.9096   8.9111   8.9111  10.5635  10.5635  10.5730  10.5730
    11.4107  11.4107  11.4149  11.4149

          k = 0.0000 0.2500 0.2500 (  6016 PWs)   bands (ev):

   -34.8128 -34.8128 -34.7800 -34.7800 -34.7774 -34.7774 -34.7667 -34.7667
   -15.6120 -15.6108 -15.5902 -15.5881 -15.5865 -15.5847 -15.4577 -15.4574
   -11.4932 -11.4925 -11.4599 -11.4583 -11.4444 -11.4440 -11.2758 -11.2752
   -11.2298 -11.2296 -11.2203 -11.2201 -11.1803 -11.1800 -11.0517 -11.0517
     2.7596   2.7598   4.6161   4.6168   4.7188   4.7196   4.7919   4.7935
     5.2190   5.2201   5.7490   5.7494   8.2709   8.2716   8.3381   8.3385
     8.5217   8.5226   9.4037   9.4040   9.7405   9.7406  10.8220  10.8220
    11.1259  11.1260  12.2285  12.2286

          k = 0.0000 0.2500-0.5000 (  6018 PWs)   bands (ev):

   -34.7998 -34.7998 -34.7906 -34.7906 -34.7782 -34.7782 -34.7683 -34.7683
   -15.6037 -15.6034 -15.5947 -15.5943 -15.5288 -15.5285 -15.5194 -15.5193
   -11.4698 -11.4695 -11.4472 -11.4471 -11.3420 -11.3417 -11.3325 -11.3311
   -11.2752 -11.2746 -11.2567 -11.2549 -11.1294 -11.1289 -11.1222 -11.1218
     3.6892   3.6895   3.7240   3.7243   4.8359   4.8363   4.8954   4.8989
     5.2564   5.2583   5.2781   5.2794   8.8158   8.8168   8.8675   8.8698
     8.9726   8.9746   9.0082   9.0086  10.2466  10.2467  10.2602  10.2606
    11.7563  11.7584  11.7945  11.7952

          k = 0.0000-0.5000-0.5000 (  6024 PWs)   bands (ev):

   -34.7927 -34.7927 -34.7852 -34.7852 -34.7839 -34.7839 -34.7750 -34.7750
   -15.5721 -15.5721 -15.5662 -15.5662 -15.5598 -15.5598 -15.5533 -15.5533
   -11.4319 -11.4319 -11.4312 -11.4312 -11.4009 -11.4009 -11.3999 -11.3999
   -11.1853 -11.1853 -11.1844 -11.1844 -11.1716 -11.1716 -11.1705 -11.1705
     4.0131   4.0131   4.0137   4.0137   4.5234   4.5234   4.5500   4.5500
     5.2657   5.2657   5.2661   5.2661   8.9001   8.9001   8.9020   8.9020
     9.6949   9.6949   9.6951   9.6951   9.7536   9.7536   9.7541   9.7541
    11.7094  11.7121  11.7162  11.7189

          k = 0.2500 0.2500 0.2500 (  6007 PWs)   bands (ev):

   -34.8071 -34.8071 -34.7826 -34.7826 -34.7773 -34.7773 -34.7698 -34.7698
   -15.5972 -15.5936 -15.5905 -15.5877 -15.5836 -15.5829 -15.4813 -15.4810
   -11.4831 -11.4820 -11.4678 -11.4660 -11.4491 -11.4487 -11.2621 -11.2615
   -11.2267 -11.2261 -11.2131 -11.2113 -11.2071 -11.2059 -11.0514 -11.0514
     3.0106   3.0108   4.3648   4.3653   4.5722   4.5731   4.8189   4.8200
     5.2962   5.2978   5.7380   5.7394   8.2413   8.2417   8.7800   8.7808
     8.9534   8.9541   9.4838   9.4841   9.6872   9.6873  10.8530  10.8532
    11.0581  11.0584  11.8663  11.8671

          k = 0.2500 0.2500-0.5000 (  6004 PWs)   bands (ev):

   -34.7969 -34.7969 -34.7881 -34.7881 -34.7810 -34.7810 -34.7708 -34.7708
   -15.5945 -15.5943 -15.5863 -15.5860 -15.5429 -15.5426 -15.5309 -15.5308
   -11.4875 -11.4873 -11.4609 -11.4605 -11.3979 -11.3973 -11.3755 -11.3751
   -11.2191 -11.2186 -11.1999 -11.1994 -11.1109 -11.1107 -11.1099 -11.1096
     3.5522   3.5529   3.9982   4.0006   4.2283   4.2310   4.7990   4.8009
     5.5179   5.5198   5.5466   5.5478   8.8365   8.8370   9.0360   9.0364
     9.2880   9.2882   9.4776   9.4777  10.3202  10.3208  10.3389  10.3396
    11.0776  11.0785  11.2631  11.2632

          k = 0.2500-0.5000-0.5000 (  6000 PWs)   bands (ev):

   -34.7926 -34.7926 -34.7852 -34.7852 -34.7838 -34.7838 -34.7749 -34.7749
   -15.5749 -15.5747 -15.5691 -15.5691 -15.5625 -15.5624 -15.5559 -15.5558
   -11.4743 -11.4741 -11.4711 -11.4709 -11.4411 -11.4407 -11.4375 -11.4370
   -11.1382 -11.1380 -11.1332 -11.1330 -11.1290 -11.1290 -11.1244 -11.1243
     3.7082   3.7093   3.7211   3.7221   4.3794   4.3810   4.3910   4.3925
     5.6965   5.6973   5.7094   5.7103   9.0820   9.0823   9.0859   9.0862
    10.0369  10.0374  10.0417  10.0421  10.1920  10.1923  10.1948  10.1951
    10.9916  10.9925  10.9942  10.9949

          k =-0.5000-0.5000-0.5000 (  6008 PWs)   bands (ev):

   -34.7926 -34.7926 -34.7851 -34.7851 -34.7838 -34.7838 -34.7749 -34.7749
   -15.5776 -15.5776 -15.5720 -15.5720 -15.5651 -15.5651 -15.5585 -15.5585
   -11.5056 -11.5056 -11.5026 -11.5026 -11.4706 -11.4706 -11.4668 -11.4668
   -11.0995 -11.0995 -11.0939 -11.0939 -11.0930 -11.0930 -11.0880 -11.0880
     3.4882   3.4882   3.5029   3.5029   4.2791   4.2791   4.2794   4.2794
     6.0210   6.0210   6.0355   6.0355   9.2960   9.2960   9.2966   9.2966
    10.4972  10.4972  10.4980  10.4980  10.5927  10.5927  10.5945  10.5945
    10.7041  10.7041  10.7057  10.7057

          k = 0.2500 0.0000 0.0000 (  6023 PWs)   bands (ev):

   -34.8197 -34.8197 -34.7814 -34.7814 -34.7702 -34.7702 -34.7656 -34.7656
   -15.6161 -15.6152 -15.6146 -15.6143 -15.5820 -15.5813 -15.4295 -15.4294
   -11.5092 -11.5081 -11.5041 -11.5037 -11.4466 -11.4457 -11.2719 -11.2715
   -11.2618 -11.2617 -11.2059 -11.2059 -11.0904 -11.0902 -11.0460 -11.0460
     2.3943   2.3945   4.5496   4.5504   4.6180   4.6182   5.0498   5.0500
     5.2542   5.2546   6.2758   6.2773   7.9446   7.9480   7.9530   7.9543
     8.0156   8.0202   9.5984   9.5986   9.8935   9.8936  10.8443  10.8444
    10.9816  10.9832  12.2395  12.2397

          k = 0.0000 0.2500 0.0000 (  6023 PWs)   bands (ev):

   -34.8198 -34.8198 -34.7802 -34.7802 -34.7726 -34.7726 -34.7644 -34.7644
   -15.6183 -15.6180 -15.6118 -15.6113 -15.5822 -15.5820 -15.4294 -15.4294
   -11.5092 -11.5089 -11.5036 -11.5034 -11.4462 -11.4461 -11.2723 -11.2719
   -11.2614 -11.2612 -11.2060 -11.2060 -11.0904 -11.0902 -11.0460 -11.0460
     2.3942   2.3945   4.5492   4.5499   4.6184   4.6186   5.0496   5.0501
     5.2545   5.2546   6.2761   6.2771   7.9446   7.9461   7.9530   7.9548
     8.0184   8.0186   9.5985   9.5986   9.8935   9.8935  10.8444  10.8445
    10.9820  10.9830  12.2396  12.2397

          k =-0.5000 0.0000 0.0000 (  5942 PWs)   bands (ev):

   -34.8011 -34.8011 -34.7987 -34.7987 -34.7702 -34.7702 -34.7670 -34.7670
   -15.6140 -15.6140 -15.6133 -15.6133 -15.5112 -15.5112 -15.5023 -15.5023
   -11.4698 -11.4698 -11.4655 -11.4655 -11.3149 -11.3149 -11.3117 -11.3117
   -11.2952 -11.2952 -11.2579 -11.2579 -11.1296 -11.1296 -11.1244 -11.1244
     3.2235   3.2235   3.8639   3.8639   5.0008   5.0008   5.0205   5.0205
     5.2826   5.2826   5.4583   5.4583   8.2217   8.2217   8.5834   8.5834
     8.5863   8.5863   9.5229   9.5229  10.3114  10.3114  10.7768  10.7768
    11.4016  11.4016  11.4452  11.4452

          k = 0.0000-0.5000 0.0000 (  5942 PWs)   bands (ev):

   -34.8034 -34.8034 -34.7954 -34.7954 -34.7732 -34.7732 -34.7649 -34.7649
   -15.6169 -15.6169 -15.6102 -15.6102 -15.5126 -15.5126 -15.5011 -15.5011
   -11.4710 -11.4710 -11.4643 -11.4643 -11.3161 -11.3161 -11.3102 -11.3102
   -11.2954 -11.2954 -11.2579 -11.2579 -11.1312 -11.1312 -11.1228 -11.1228
     3.2232   3.2232   3.8642   3.8642   5.0008   5.0008   5.0204   5.0204
     5.2822   5.2822   5.4588   5.4588   8.2215   8.2215   8.5832   8.5832
     8.5866   8.5866   9.5229   9.5229  10.3116  10.3116  10.7769  10.7769
    11.4015  11.4015  11.4456  11.4456

          k = 0.0000-0.2500 0.2500 (  6016 PWs)   bands (ev):

   -34.8128 -34.8128 -34.7800 -34.7800 -34.7774 -34.7774 -34.7667 -34.7667
   -15.6121 -15.6107 -15.5902 -15.5882 -15.5864 -15.5847 -15.4576 -15.4575
   -11.4933 -11.4924 -11.4597 -11.4584 -11.4443 -11.4441 -11.2756 -11.2755
   -11.2298 -11.2297 -11.2202 -11.2200 -11.1802 -11.1801 -11.0517 -11.0517
     2.7595   2.7599   4.6157   4.6165   4.7164   4.7194   4.7936   4.7948
     5.2197   5.2200   5.7492   5.7494   8.2705   8.2712   8.3378   8.3384
     8.5222   8.5226   9.4039   9.4039   9.7406   9.7406  10.8220  10.8220
    11.1248  11.1265  12.2284  12.2285

          k = 0.2500 0.0000-0.2500 (  6016 PWs)   bands (ev):

   -34.8128 -34.8128 -34.7817 -34.7817 -34.7752 -34.7752 -34.7673 -34.7673
   -15.6112 -15.6108 -15.5925 -15.5895 -15.5855 -15.5825 -15.4577 -15.4575
   -11.4931 -11.4924 -11.4594 -11.4587 -11.4444 -11.4436 -11.2761 -11.2755
   -11.2301 -11.2297 -11.2201 -11.2195 -11.1804 -11.1800 -11.0519 -11.0519
     2.7613   2.7616   4.6182   4.6207   4.7183   4.7204   4.7926   4.7933
     5.2159   5.2176   5.7448   5.7457   8.2695   8.2723   8.3370   8.3408
     8.5179   8.5187   9.4021   9.4026   9.7410   9.7411  10.8241  10.8244
    11.1266  11.1275  12.2281  12.2283

          k =-0.2500 0.0000-0.2500 (  6016 PWs)   bands (ev):

   -34.8128 -34.8128 -34.7817 -34.7817 -34.7752 -34.7751 -34.7673 -34.7673
   -15.6113 -15.6107 -15.5927 -15.5895 -15.5856 -15.5825 -15.4576 -15.4574
   -11.4933 -11.4925 -11.4597 -11.4590 -11.4445 -11.4438 -11.2757 -11.2750
   -11.2300 -11.2298 -11.2201 -11.2197 -11.1805 -11.1800 -11.0516 -11.0515
     2.7578   2.7581   4.6120   4.6143   4.7180   4.7201   4.7921   4.7927
     5.2218   5.2234   5.7529   5.7539   8.2701   8.2729   8.3355   8.3392
     8.5257   8.5265   9.4051   9.4056   9.7401   9.7401  10.8193  10.8196
    11.1244  11.1252  12.2288  12.2290

          k = 0.2500-0.2500 0.0000 (  6016 PWs)   bands (ev):

   -34.8128 -34.8128 -34.7819 -34.7819 -34.7746 -34.7746 -34.7676 -34.7676
   -15.6115 -15.6103 -15.5942 -15.5940 -15.5817 -15.5805 -15.4576 -15.4574
   -11.4948 -11.4938 -11.4716 -11.4709 -11.4330 -11.4325 -11.2659 -11.2655
   -11.2310 -11.2301 -11.2266 -11.2261 -11.1780 -11.1777 -11.0548 -11.0548
     2.7460   2.7463   4.6041   4.6063   4.7441   4.7467   4.8333   4.8348
     5.1024   5.1035   5.9701   5.9712   7.8279   7.8283   8.3385   8.3397
     8.7104   8.7109   9.4623   9.4625   9.7437   9.7438  10.8283  10.8286
    11.1218  11.1226  12.2409  12.2412

          k =-0.2500-0.2500 0.0000 (  6016 PWs)   bands (ev):

   -34.8127 -34.8127 -34.7823 -34.7823 -34.7744 -34.7744 -34.7675 -34.7675
   -15.6117 -15.6103 -15.5929 -15.5916 -15.5831 -15.5829 -15.4574 -15.4572
   -11.4946 -11.4937 -11.4687 -11.4682 -11.4368 -11.4363 -11.2660 -11.2657
   -11.2352 -11.2345 -11.2223 -11.2219 -11.1770 -11.1767 -11.0546 -11.0546
     2.7415   2.7418   4.6004   4.6024   4.7420   4.7447   4.8397   4.8411
     5.1031   5.1042   5.9771   5.9781   7.8266   7.8270   8.3408   8.3421
     8.7159   8.7164   9.4631   9.4633   9.7442   9.7442  10.8244  10.8247
    11.1200  11.1207  12.2414  12.2416

          k = 0.2500 0.0000 0.5000 (  6018 PWs)   bands (ev):

   -34.7998 -34.7998 -34.7906 -34.7906 -34.7782 -34.7782 -34.7683 -34.7683
   -15.6036 -15.6035 -15.5946 -15.5945 -15.5287 -15.5286 -15.5194 -15.5193
   -11.4697 -11.4696 -11.4473 -11.4471 -11.3420 -11.3415 -11.3320 -11.3314
   -11.2751 -11.2750 -11.2561 -11.2558 -11.1291 -11.1291 -11.1220 -11.1219
     3.6887   3.6890   3.7246   3.7249   4.8359   4.8362   4.8967   4.8971
     5.2542   5.2556   5.2808   5.2823   8.8163   8.8164   8.8688   8.8689
     8.9733   8.9734   9.0084   9.0085  10.2455  10.2457  10.2612  10.2615
    11.7572  11.7577  11.7950  11.7954

          k =-0.5000-0.2500 0.0000 (  6018 PWs)   bands (ev):

   -34.7975 -34.7975 -34.7946 -34.7946 -34.7744 -34.7744 -34.7704 -34.7704
   -15.6018 -15.6016 -15.5976 -15.5973 -15.5282 -15.5274 -15.5193 -15.5187
   -11.4732 -11.4728 -11.4569 -11.4565 -11.3447 -11.3447 -11.3168 -11.3167
   -11.2650 -11.2644 -11.2540 -11.2534 -11.1336 -11.1333 -11.1296 -11.1295
     3.4456   3.4458   3.9541   3.9547   4.6800   4.6811   5.0933   5.0951
     5.2814   5.2828   5.4067   5.4078   8.0146   8.0149   8.9306   8.9309
     8.9420   8.9421   9.6047   9.6047  10.1898  10.1898  10.2786  10.2786
    11.7080  11.7092  11.7306  11.7313

          k = 0.0000-0.5000 0.2500 (  6018 PWs)   bands (ev):

   -34.7994 -34.7994 -34.7915 -34.7915 -34.7772 -34.7772 -34.7687 -34.7687
   -15.6049 -15.6007 -15.5980 -15.5940 -15.5305 -15.5275 -15.5196 -15.5168
   -11.4741 -11.4722 -11.4561 -11.4534 -11.3450 -11.3435 -11.3194 -11.3187
   -11.2672 -11.2634 -11.2540 -11.2508 -11.1346 -11.1339 -11.1296 -11.1288
     3.4452   3.4452   4.0579   4.0589   4.6855   4.6856   4.9875   4.9889
     5.1494   5.1501   5.4058   5.4059   8.4395   8.4398   8.9084   8.9090
     8.9490   8.9498   9.3049   9.3050  10.1921  10.1922  10.3150  10.3151
    11.7658  11.7675  11.7891  11.7896

          k = 0.2500-0.5000 0.0000 (  6018 PWs)   bands (ev):

   -34.7994 -34.7994 -34.7915 -34.7915 -34.7772 -34.7772 -34.7687 -34.7687
   -15.6049 -15.6010 -15.5977 -15.5941 -15.5305 -15.5274 -15.5196 -15.5167
   -11.4743 -11.4718 -11.4582 -11.4552 -11.3451 -11.3443 -11.3169 -11.3162
   -11.2664 -11.2634 -11.2549 -11.2524 -11.1343 -11.1339 -11.1292 -11.1286
     3.4453   3.4455   3.9544   3.9550   4.6793   4.6817   5.0939   5.0943
     5.2805   5.2833   5.4075   5.4078   8.0144   8.0149   8.9306   8.9308
     8.9419   8.9424   9.6047   9.6048  10.1898  10.1899  10.2785  10.2787
    11.7086  11.7100  11.7293  11.7320

          k =-0.5000 0.0000 0.2500 (  6018 PWs)   bands (ev):

   -34.7975 -34.7975 -34.7946 -34.7946 -34.7744 -34.7744 -34.7704 -34.7704
   -15.6020 -15.6013 -15.5976 -15.5973 -15.5282 -15.5274 -15.5196 -15.5187
   -11.4735 -11.4728 -11.4550 -11.4546 -11.3442 -11.3440 -11.3203 -11.3180
   -11.2657 -11.2650 -11.2529 -11.2521 -11.1337 -11.1335 -11.1299 -11.1297
     3.4453   3.4455   4.0576   4.0588   4.6849   4.6861   4.9842   4.9918
     5.1452   5.1543   5.4055   5.4067   8.4398   8.4399   8.9083   8.9089
     8.9493   8.9495   9.3049   9.3051  10.1919  10.1921  10.3150  10.3152
    11.7649  11.7668  11.7890  11.7904

          k =-0.5000 0.0000 0.5000 (  6024 PWs)   bands (ev):

   -34.7927 -34.7927 -34.7852 -34.7852 -34.7839 -34.7839 -34.7750 -34.7750
   -15.5719 -15.5719 -15.5664 -15.5664 -15.5598 -15.5598 -15.5532 -15.5532
   -11.4336 -11.4336 -11.4297 -11.4297 -11.4024 -11.4024 -11.3981 -11.3981
   -11.1879 -11.1879 -11.1824 -11.1824 -11.1736 -11.1736 -11.1681 -11.1681
     4.0070   4.0070   4.0199   4.0199   4.5360   4.5360   4.5367   4.5367
     5.2582   5.2582   5.2742   5.2742   8.9010   8.9010   8.9013   8.9013
     9.6943   9.6943   9.6954   9.6954   9.7525   9.7525   9.7552   9.7552
    11.7093  11.7099  11.7131  11.7156

          k =-0.5000 0.5000 0.0000 (  6024 PWs)   bands (ev):

   -34.7927 -34.7927 -34.7854 -34.7854 -34.7837 -34.7837 -34.7750 -34.7750
   -15.5725 -15.5725 -15.5668 -15.5668 -15.5599 -15.5599 -15.5519 -15.5519
   -11.4349 -11.4349 -11.4272 -11.4272 -11.4203 -11.4203 -11.3826 -11.3826
   -11.1865 -11.1865 -11.1807 -11.1807 -11.1771 -11.1771 -11.1665 -11.1665
     3.9857   3.9857   4.0385   4.0385   4.0576   4.0576   5.2245   5.2245
     5.2877   5.2877   5.3017   5.3017   7.8510   7.8510   9.6501   9.6502
     9.6639   9.6639   9.6836   9.6836   9.7188   9.7188   9.8191   9.8191
    11.6802  11.6805  11.7089  11.7104

          k =-0.2500-0.2500 0.2500 (  6007 PWs)   bands (ev):

   -34.8070 -34.8070 -34.7826 -34.7826 -34.7773 -34.7773 -34.7698 -34.7698
   -15.5970 -15.5936 -15.5906 -15.5876 -15.5837 -15.5829 -15.4813 -15.4811
   -11.4832 -11.4815 -11.4676 -11.4656 -11.4492 -11.4485 -11.2622 -11.2617
   -11.2270 -11.2265 -11.2131 -11.2112 -11.2072 -11.2057 -11.0517 -11.0517
     3.0146   3.0152   4.3701   4.3727   4.5668   4.5692   4.8231   4.8245
     5.2890   5.2907   5.7309   5.7315   8.2418   8.2422   8.7767   8.7774
     8.9510   8.9513   9.4838   9.4840   9.6880   9.6881  10.8543  10.8548
    11.0594  11.0601  11.8638  11.8658

          k =-0.2500 0.2500-0.2500 (  6007 PWs)   bands (ev):

   -34.8072 -34.8072 -34.7823 -34.7823 -34.7773 -34.7773 -34.7700 -34.7700
   -15.5977 -15.5953 -15.5910 -15.5880 -15.5828 -15.5802 -15.4815 -15.4812
   -11.4858 -11.4843 -11.4681 -11.4662 -11.4456 -11.4452 -11.2614 -11.2609
   -11.2235 -11.2231 -11.2141 -11.2126 -11.2106 -11.2090 -11.0516 -11.0516
     3.0164   3.0170   4.3581   4.3606   4.5783   4.5805   4.8171   4.8185
     5.2985   5.3000   5.7265   5.7272   8.2408   8.2413   8.7792   8.7799
     8.9501   8.9506   9.4837   9.4839   9.6873   9.6873  10.8541  10.8547
    11.0592  11.0600  11.8643  11.8664

          k = 0.2500-0.2500-0.2500 (  6007 PWs)   bands (ev):

   -34.8071 -34.8071 -34.7823 -34.7823 -34.7773 -34.7773 -34.7700 -34.7700
   -15.5976 -15.5952 -15.5910 -15.5880 -15.5829 -15.5802 -15.4816 -15.4813
   -11.4854 -11.4843 -11.4678 -11.4659 -11.4455 -11.4452 -11.2616 -11.2610
   -11.2239 -11.2232 -11.2141 -11.2125 -11.2106 -11.2091 -11.0518 -11.0518
     3.0208   3.0210   4.3659   4.3663   4.5744   4.5753   4.8215   4.8228
     5.2905   5.2921   5.7187   5.7201   8.2414   8.2419   8.7761   8.7769
     8.9473   8.9480   9.4836   9.4839   9.6881   9.6882  10.8560  10.8561
    11.0612  11.0615  11.8639  11.8647

          k =-0.2500 0.2500 0.5000 (  6004 PWs)   bands (ev):

   -34.7972 -34.7972 -34.7877 -34.7877 -34.7807 -34.7807 -34.7711 -34.7711
   -15.5963 -15.5961 -15.5845 -15.5840 -15.5414 -15.5411 -15.5326 -15.5324
   -11.4903 -11.4901 -11.4576 -11.4572 -11.3971 -11.3964 -11.3764 -11.3757
   -11.2162 -11.2157 -11.2029 -11.2023 -11.1151 -11.1148 -11.1064 -11.1061
     3.5685   3.5692   3.9916   3.9943   4.2208   4.2238   4.8039   4.8060
     5.5206   5.5231   5.5318   5.5323   8.8351   8.8357   9.0356   9.0361
     9.2874   9.2876   9.4778   9.4779  10.3180  10.3185  10.3433  10.3440
    11.0776  11.0786  11.2634  11.2636

          k =-0.5000-0.2500 0.2500 (  6004 PWs)   bands (ev):

   -34.7953 -34.7953 -34.7917 -34.7917 -34.7773 -34.7773 -34.7724 -34.7724
   -15.5933 -15.5924 -15.5892 -15.5886 -15.5406 -15.5394 -15.5330 -15.5318
   -11.4852 -11.4844 -11.4726 -11.4717 -11.3935 -11.3930 -11.3716 -11.3700
   -11.2089 -11.2085 -11.2038 -11.2034 -11.1144 -11.1143 -11.1125 -11.1124
     3.5299   3.5305   3.8604   3.8610   4.4552   4.4559   4.7838   4.7843
     5.5314   5.5325   5.5524   5.5535   8.4264   8.4265   9.2419   9.2421
     9.3299   9.3299   9.5311   9.5312  10.3200  10.3205  10.3572  10.3573
    11.1081  11.1083  11.1969  11.1985

          k = 0.5000-0.2500-0.2500 (  6004 PWs)   bands (ev):

   -34.7953 -34.7953 -34.7917 -34.7917 -34.7773 -34.7773 -34.7724 -34.7724
   -15.5933 -15.5924 -15.5892 -15.5886 -15.5405 -15.5395 -15.5329 -15.5318
   -11.4849 -11.4847 -11.4726 -11.4718 -11.3935 -11.3930 -11.3716 -11.3701
   -11.2089 -11.2085 -11.2039 -11.2034 -11.1146 -11.1141 -11.1126 -11.1124
     3.5300   3.5301   3.8603   3.8615   4.4551   4.4563   4.7832   4.7849
     5.5289   5.5311   5.5543   5.5550   8.4263   8.4265   9.2418   9.2423
     9.3298   9.3298   9.5310   9.5313  10.3200  10.3200  10.3574  10.3574
    11.1086  11.1086  11.1980  11.1981

          k =-0.2500-0.5000 0.2500 (  6004 PWs)   bands (ev):

   -34.7967 -34.7967 -34.7889 -34.7889 -34.7798 -34.7798 -34.7713 -34.7713
   -15.5959 -15.5921 -15.5891 -15.5854 -15.5430 -15.5396 -15.5331 -15.5300
   -11.4856 -11.4836 -11.4734 -11.4706 -11.3945 -11.3920 -11.3721 -11.3698
   -11.2104 -11.2074 -11.2048 -11.2019 -11.1157 -11.1153 -11.1118 -11.1114
     3.5331   3.5339   3.8630   3.8634   4.4519   4.4530   4.7848   4.7863
     5.5276   5.5291   5.5491   5.5500   8.4266   8.4272   9.2411   9.2414
     9.3292   9.3296   9.5314   9.5316  10.3218  10.3222  10.3564  10.3567
    11.1085  11.1092  11.1973  11.1979

          k =-0.2500 0.5000-0.2500 (  6004 PWs)   bands (ev):

   -34.7967 -34.7967 -34.7889 -34.7889 -34.7798 -34.7798 -34.7713 -34.7713
   -15.5961 -15.5920 -15.5893 -15.5854 -15.5430 -15.5395 -15.5331 -15.5298
   -11.4859 -11.4840 -11.4737 -11.4709 -11.3947 -11.3920 -11.3718 -11.3695
   -11.2102 -11.2071 -11.2051 -11.2021 -11.1154 -11.1151 -11.1117 -11.1112
     3.5260   3.5269   3.8585   3.8588   4.4585   4.4595   4.7818   4.7832
     5.5311   5.5323   5.5590   5.5606   8.4255   8.4261   9.2426   9.2430
     9.3301   9.3305   9.5308   9.5310  10.3182  10.3185  10.3579  10.3582
    11.1081  11.1086  11.1978  11.1984

          k =-0.5000 0.2500 0.5000 (  6000 PWs)   bands (ev):

   -34.7926 -34.7926 -34.7852 -34.7852 -34.7838 -34.7838 -34.7749 -34.7749
   -15.5748 -15.5747 -15.5692 -15.5692 -15.5625 -15.5624 -15.5559 -15.5558
   -11.4748 -11.4741 -11.4711 -11.4706 -11.4413 -11.4409 -11.4372 -11.4366
   -11.1391 -11.1382 -11.1329 -11.1327 -11.1294 -11.1291 -11.1243 -11.1234
     3.7077   3.7084   3.7219   3.7226   4.3855   4.3856   4.3862   4.3863
     5.6955   5.6965   5.7104   5.7113   9.0825   9.0826   9.0858   9.0858
    10.0372  10.0380  10.0412  10.0413  10.1924  10.1926  10.1946  10.1947
    10.9924  10.9934  10.9937  10.9944

          k =-0.5000 0.5000 0.2500 (  6000 PWs)   bands (ev):

   -34.7926 -34.7926 -34.7853 -34.7853 -34.7838 -34.7838 -34.7749 -34.7749
   -15.5753 -15.5746 -15.5704 -15.5681 -15.5641 -15.5613 -15.5557 -15.5547
   -11.4754 -11.4741 -11.4712 -11.4709 -11.4496 -11.4485 -11.4305 -11.4277
   -11.1386 -11.1378 -11.1325 -11.1322 -11.1301 -11.1289 -11.1246 -11.1234
     3.7129   3.7145   3.7282   3.7297   4.0379   4.0394   4.8058   4.8071
     5.7044   5.7047   5.7163   5.7166   8.4475   8.4476   9.5993   9.5995
    10.0396  10.0398  10.0591  10.0592  10.0953  10.0955  10.2566  10.2568
    10.9241  10.9247  10.9276  10.9285

     the Fermi energy is     9.3876 ev

!    total energy              =   -2245.89069191 Ry
     Harris-Foulkes estimate   =   -2245.89069268 Ry
     estimated scf accuracy    <       0.00000089 Ry

     total all-electron energy =    -90250.234077 Ry

     The total energy is the sum of the following terms:

     one-electron contribution =     -52.56991583 Ry
     hartree contribution      =      45.25954268 Ry
     xc contribution           =    -255.66602545 Ry
     ewald contribution        =    -234.85038508 Ry
     one-center paw contrib.   =   -1748.06036337 Ry
     smearing contrib. (-TS)   =      -0.00354485 Ry

     convergence has been achieved in   7 iterations

     Forces acting on atoms (cartesian axes, Ry/au):

     atom    1 type  1   force =     0.01588994    0.01725302    0.00086408
     atom    2 type  1   force =     0.01674626   -0.01552368    0.00077326
     atom    3 type  1   force =    -0.01631740    0.01675658    0.00041476
     atom    4 type  1   force =    -0.01633433   -0.01597240    0.00037774
     atom    5 type  2   force =     0.00015688   -0.00279028   -0.00274112
     atom    6 type  2   force =    -0.00000313   -0.00001240    0.00022120
     atom    7 type  2   force =    -0.00000224   -0.00006707   -0.00007020
     atom    8 type  2   force =    -0.00000514    0.00017707   -0.00000695
     atom    9 type  2   force =    -0.00006212   -0.00003250   -0.00006159
     atom   10 type  2   force =    -0.00006873    0.00021165    0.00022881

     Total force =     0.046451     Total SCF correction =     0.001886

     Writing output data file 2397.save
forrtl: Disk quota exceeded
forrtl: severe (28): CLOSE error, unit 10, file "Unknown"
Image              PC                Routine            Line        Source             
pw.x               0000000000B6DF5E  Unknown               Unknown  Unknown
pw.x               0000000000B605F6  Unknown               Unknown  Unknown
pw.x               00000000005FFBCC  buffers_mp_close_         689  buffers.f90
pw.x               00000000006266FF  close_files_               38  close_files.f90
pw.x               0000000000558845  stop_run_                  45  stop_run.f90
pw.x               0000000000406F18  MAIN__                     61  pwscf.f90
pw.x               0000000000406C1E  Unknown               Unknown  Unknown
libc-2.17.so       00007FFAE509C555  __libc_start_main     Unknown  Unknown
pw.x               0000000000406B29  Unknown               Unknown  Unknown
Removing 2397 from /home/shaharpit/tmp
