
     Program PWSCF v.6.1 (svn rev. 13369) starts on 16Nov2022 at 10:51:29 

     This program is part of the open-source Quantum ESPRESSO suite
     for quantum simulation of materials; please cite
         "P. Giannozzi et al., J. Phys.:Condens. Matter 21 395502 (2009);
          URL http://www.quantum-espresso.org", 
     in publications or presentations arising from this work. More details at
     http://www.quantum-espresso.org/quote

     Parallel version (MPI), running on    32 processors
     R & G space division:  proc/nbgrp/npool/nimage =      32
     Reading input from ./fcc_125_1.in
Warning: card &IONS ignored
Warning: card 	ION_DYNAMICS='BFGS', ignored
Warning: card / ignored
Warning: card &CELL ignored
Warning: card / ignored

     Current dimensions of program PWSCF are:
     Max number of different atomic species (ntypx) = 10
     Max number of k-points (npk) =  40000
     Max angular momentum in pseudopotentials (lmaxx) =  3
               file Gd.rel-pbe-spdn-kjpaw_psl.1.0.0.UPF: wavefunction(s)  5P 5P renormalized
               file H.pbe-kjpaw_psl.0.1.UPF: wavefunction(s)  1S renormalized

     Subspace diagonalization in iterative solution of the eigenvalue problem:
     a serial algorithm will be used

 
     Parallelization info
     --------------------
     sticks:   dense  smooth     PW     G-vecs:    dense   smooth      PW
     Min          49      49     14                 1495     1495     233
     Max          50      50     16                 1500     1500     236
     Sum        1597    1597    465                47937    47937    7497
 


     bravais-lattice index     =            0
     lattice parameter (alat)  =      10.0212  a.u.
     unit-cell volume          =    1006.3788 (a.u.)^3
     number of atoms/cell      =           14
     number of atomic types    =            2
     number of electrons       =        54.00
     number of Kohn-Sham states=           64
     kinetic-energy cutoff     =      50.0000  Ry
     charge density cutoff     =     200.0000  Ry
     convergence threshold     =      1.0E-06
     mixing beta               =       0.7000
     number of iterations used =            8  plain     mixing
     Exchange-correlation      =  SLA  PW   PBX  PBC ( 1  4  3  4 0 0)
     Non magnetic calculation with spin-orbit


     celldm(1)=  10.021218  celldm(2)=   0.000000  celldm(3)=   0.000000
     celldm(4)=   0.000000  celldm(5)=   0.000000  celldm(6)=   0.000000

     crystal axes: (cart. coord. in units of alat)
               a(1) = (   1.000000   0.000000   0.000000 )  
               a(2) = (   0.000000   1.000000   0.000000 )  
               a(3) = (   0.000000   0.000000   1.000000 )  

     reciprocal axes: (cart. coord. in units 2 pi/alat)
               b(1) = (  1.000000  0.000000  0.000000 )  
               b(2) = (  0.000000  1.000000  0.000000 )  
               b(3) = (  0.000000  0.000000  1.000000 )  


     PseudoPot. # 1 for Gd read from file:
     /home/shaharpit/MeamGdH/dft/qe_potentials/Gd.rel-pbe-spdn-kjpaw_psl.1.0.0.UPF
     MD5 check sum: cf50ec46d1536b4a0251694df1946a53
     Pseudo is Projector augmented-wave + core cor, Zval = 11.0
     Generated using "atomic" code by A. Dal Corso  v.6.2.2
     Shape of augmentation charge: PSQ
     Using radial grid of 1263 points, 10 beta functions with: 
                l(1) =   0
                l(2) =   0
                l(3) =   1
                l(4) =   1
                l(5) =   1
                l(6) =   1
                l(7) =   2
                l(8) =   2
                l(9) =   2
               l(10) =   2
     Q(r) pseudized with 0 coefficients 


     PseudoPot. # 2 for  H read from file:
     /home/shaharpit/MeamGdH/dft/qe_potentials/H.pbe-kjpaw_psl.0.1.UPF
     MD5 check sum: fbb168fef676c0aaadbafd73f5b1efa8
     Pseudo is Projector augmented-wave, Zval =  1.0
     Generated using "atomic" code by A. Dal Corso  v.5.0.2 svn rev. 9415
     Shape of augmentation charge: PSQ
     Using radial grid of  929 points,  2 beta functions with: 
                l(1) =   0
                l(2) =   0
     Q(r) pseudized with 0 coefficients 


     atomic species   valence    mass     pseudopotential
        Gd            11.00   157.25000     Gd( 1.00)
        H              1.00     1.00794      H( 1.00)

      2 Sym. Ops. (no inversion) found



   Cartesian axes

     site n.     atom                  positions (alat units)
         1           Gd  tau(   1) = (   0.0000000   0.0000000   0.0000000  )
         2           Gd  tau(   2) = (   0.0000000   0.5000000   0.5000000  )
         3           Gd  tau(   3) = (   0.5000000   0.0000000   0.5000000  )
         4           Gd  tau(   4) = (   0.5000000   0.5000000   0.0000000  )
         5           H   tau(   5) = (   0.2500000   0.7539000   0.7539000  )
         6           H   tau(   6) = (   0.2500000   0.7501000   0.2500000  )
         7           H   tau(   7) = (   0.2500000   0.2500000   0.2500000  )
         8           H   tau(   8) = (   0.2500000   0.2500000   0.7501000  )
         9           H   tau(   9) = (   0.7501000   0.2500000   0.7501000  )
        10           H   tau(  10) = (   0.7501000   0.2500000   0.2500000  )
        11           H   tau(  11) = (   0.7501000   0.7501000   0.2500000  )
        12           H   tau(  12) = (   0.7501000   0.7501000   0.7501000  )
        13           H   tau(  13) = (   0.5001000   0.5001000   0.5001000  )
        14           H   tau(  14) = (   0.5001000   0.0000000   0.0000000  )

     number of k points=    24  gaussian smearing, width (Ry)=  0.0100
                       cart. coord. in units 2pi/alat
        k(    1) = (   0.0000000   0.0000000   0.0000000), wk =   0.0156250
        k(    2) = (   0.0000000   0.0000000   0.2500000), wk =   0.0625000
        k(    3) = (   0.0000000   0.0000000  -0.5000000), wk =   0.0312500
        k(    4) = (   0.0000000   0.2500000   0.2500000), wk =   0.0312500
        k(    5) = (   0.0000000   0.2500000  -0.5000000), wk =   0.0625000
        k(    6) = (   0.0000000  -0.5000000  -0.5000000), wk =   0.0156250
        k(    7) = (   0.2500000   0.2500000   0.2500000), wk =   0.0312500
        k(    8) = (   0.2500000   0.2500000  -0.5000000), wk =   0.0625000
        k(    9) = (   0.2500000  -0.5000000  -0.5000000), wk =   0.0312500
        k(   10) = (  -0.5000000  -0.5000000  -0.5000000), wk =   0.0156250
        k(   11) = (   0.2500000   0.0000000   0.0000000), wk =   0.0312500
        k(   12) = (  -0.5000000   0.0000000   0.0000000), wk =   0.0156250
        k(   13) = (   0.0000000   0.2500000  -0.2500000), wk =   0.0312500
        k(   14) = (   0.2500000   0.0000000  -0.2500000), wk =   0.0625000
        k(   15) = (  -0.2500000   0.0000000  -0.2500000), wk =   0.0625000
        k(   16) = (   0.2500000   0.0000000   0.5000000), wk =   0.0625000
        k(   17) = (  -0.5000000  -0.2500000   0.0000000), wk =   0.0625000
        k(   18) = (  -0.5000000   0.0000000   0.5000000), wk =   0.0312500
        k(   19) = (  -0.2500000   0.2500000  -0.2500000), wk =   0.0625000
        k(   20) = (   0.2500000  -0.2500000  -0.2500000), wk =   0.0312500
        k(   21) = (  -0.2500000   0.2500000   0.5000000), wk =   0.0625000
        k(   22) = (  -0.5000000  -0.2500000   0.2500000), wk =   0.0312500
        k(   23) = (   0.5000000  -0.2500000  -0.2500000), wk =   0.0312500
        k(   24) = (  -0.5000000   0.2500000   0.5000000), wk =   0.0625000

     Dense  grid:    47937 G-vectors     FFT dimensions: (  45,  45,  45)

     Estimated max dynamical RAM per process >      17.54MB

     Estimated total allocated dynamical RAM >     561.32MB

     Check: negative/imaginary core charge=   -0.000002    0.000000

     Initial potential from superposition of free atoms

     starting charge   53.92372, renormalised to   54.00000
     Starting wfc are  124 randomized atomic wfcs
     Checking if some PAW data can be deallocated... 

     total cpu time spent up to now is        6.2 secs

     per-process dynamical memory:    59.9 Mb

     Self-consistent Calculation

     iteration #  1     ecut=    50.00 Ry     beta=0.70
     Davidson diagonalization with overlap
     ethr =  1.00E-02,  avg # of iterations =  2.3

     total cpu time spent up to now is        9.9 secs

     total energy              =   -2250.66143216 Ry
     Harris-Foulkes estimate   =   -2251.01481210 Ry
     estimated scf accuracy    <       0.62740237 Ry

     iteration #  2     ecut=    50.00 Ry     beta=0.70
     Davidson diagonalization with overlap
     ethr =  1.16E-03,  avg # of iterations =  2.9

     total cpu time spent up to now is       13.6 secs

     total energy              =   -2250.77347671 Ry
     Harris-Foulkes estimate   =   -2250.79041398 Ry
     estimated scf accuracy    <       0.02466362 Ry

     iteration #  3     ecut=    50.00 Ry     beta=0.70
     Davidson diagonalization with overlap
     ethr =  4.57E-05,  avg # of iterations =  4.0

     total cpu time spent up to now is       17.9 secs

     total energy              =   -2250.78048618 Ry
     Harris-Foulkes estimate   =   -2250.78508344 Ry
     estimated scf accuracy    <       0.00907236 Ry

     iteration #  4     ecut=    50.00 Ry     beta=0.70
     Davidson diagonalization with overlap
     ethr =  1.68E-05,  avg # of iterations =  3.5

     total cpu time spent up to now is       21.7 secs

     total energy              =   -2250.78269020 Ry
     Harris-Foulkes estimate   =   -2250.78292211 Ry
     estimated scf accuracy    <       0.00060558 Ry

     iteration #  5     ecut=    50.00 Ry     beta=0.70
     Davidson diagonalization with overlap
     ethr =  1.12E-06,  avg # of iterations =  5.0

     total cpu time spent up to now is       26.0 secs

     total energy              =   -2250.78283563 Ry
     Harris-Foulkes estimate   =   -2250.78283463 Ry
     estimated scf accuracy    <       0.00001357 Ry

     iteration #  6     ecut=    50.00 Ry     beta=0.70
     Davidson diagonalization with overlap
     ethr =  2.51E-08,  avg # of iterations =  3.4

     total cpu time spent up to now is       29.9 secs

     total energy              =   -2250.78284003 Ry
     Harris-Foulkes estimate   =   -2250.78284022 Ry
     estimated scf accuracy    <       0.00000147 Ry

     iteration #  7     ecut=    50.00 Ry     beta=0.70
     Davidson diagonalization with overlap
     ethr =  2.72E-09,  avg # of iterations =  3.8

     total cpu time spent up to now is       33.7 secs

     total energy              =   -2250.78284039 Ry
     Harris-Foulkes estimate   =   -2250.78284085 Ry
     estimated scf accuracy    <       0.00000123 Ry

     iteration #  8     ecut=    50.00 Ry     beta=0.70
     Davidson diagonalization with overlap
     ethr =  2.29E-09,  avg # of iterations =  2.9

     total cpu time spent up to now is       37.1 secs

     End of self-consistent calculation

          k = 0.0000 0.0000 0.0000 (  6031 PWs)   bands (ev):

   -34.4411 -34.4411 -34.4022 -34.4022 -34.3332 -34.3332 -34.3039 -34.3039
   -15.2621 -15.2621 -15.2231 -15.2231 -15.1647 -15.1647 -14.9775 -14.9775
   -11.2021 -11.2021 -11.1512 -11.1512 -11.1000 -11.1000 -10.8511 -10.8511
   -10.8357 -10.8357 -10.8248 -10.8248 -10.6051 -10.6051 -10.5768 -10.5768
     1.2846   1.2846   4.4917   4.4917   4.6784   4.6784   4.6792   4.6792
     4.6820   4.6820   6.0403   6.0403   6.2353   6.2353   6.2417   6.2417
     6.2532   6.2532   7.9297   7.9297   8.3758   8.3758  10.7965  10.7965
    10.8034  10.8034  10.9598  10.9598  13.3585  13.3585  13.3593  13.3593

          k = 0.0000 0.0000 0.2500 (  6023 PWs)   bands (ev):

   -34.4344 -34.4344 -34.4068 -34.4068 -34.3323 -34.3323 -34.3068 -34.3068
   -15.2479 -15.2479 -15.2239 -15.2238 -15.1462 -15.1462 -15.0099 -15.0098
   -11.1561 -11.1558 -11.1240 -11.1238 -11.0546 -11.0544 -10.8944 -10.8940
   -10.8642 -10.8642 -10.7962 -10.7962 -10.6744 -10.6744 -10.6288 -10.6287
     1.7419   1.7421   4.1587   4.1593   4.8855   4.8855   4.8872   4.8881
     4.9748   4.9748   5.9861   5.9897   5.9907   5.9954   6.0940   6.1013
     6.3271   6.3274   7.2233   7.2236   8.6868   8.6869  11.0656  11.0659
    11.1981  11.2000  11.8537  11.8540  12.5000  12.5019  12.8223  12.8231

          k = 0.0000 0.0000-0.5000 (  5942 PWs)   bands (ev):

   -34.4198 -34.4198 -34.4193 -34.4193 -34.3310 -34.3310 -34.3100 -34.3100
   -15.2314 -15.2314 -15.2282 -15.2282 -15.0921 -15.0921 -15.0764 -15.0764
   -11.0910 -11.0910 -11.0844 -11.0844 -10.9723 -10.9723 -10.9721 -10.9721
   -10.8521 -10.8521 -10.8360 -10.8360 -10.7201 -10.7201 -10.7088 -10.7088
     2.9096   2.9096   2.9232   2.9232   5.3061   5.3061   5.3078   5.3078
     5.5385   5.5385   5.5401   5.5401   5.8405   5.8405   5.8583   5.8583
     6.5080   6.5080   6.5203   6.5203  10.1247  10.1247  10.1325  10.1325
    11.5352  11.5352  11.5360  11.5360  11.9130  11.9130  11.9140  11.9140

          k = 0.0000 0.2500 0.2500 (  6016 PWs)   bands (ev):

   -34.4293 -34.4293 -34.4097 -34.4097 -34.3323 -34.3323 -34.3089 -34.3089
   -15.2345 -15.2345 -15.2217 -15.2216 -15.1382 -15.1382 -15.0370 -15.0369
   -11.1283 -11.1282 -11.1118 -11.1117 -11.0326 -11.0326 -10.9049 -10.9049
   -10.8440 -10.8440 -10.7995 -10.7995 -10.7604 -10.7603 -10.6371 -10.6371
     2.1515   2.1516   4.1510   4.1510   4.9230   4.9230   5.0639   5.0639
     5.1343   5.1344   5.2057   5.2059   5.8550   5.8551   6.5490   6.5493
     6.5698   6.5705   6.7051   6.7053   9.0747   9.0747  10.8243  10.8243
    11.3421  11.3422  12.3311  12.3312  12.4400  12.4400  12.6717  12.7241

          k = 0.0000 0.2500-0.5000 (  6018 PWs)   bands (ev):

   -34.4185 -34.4185 -34.4182 -34.4182 -34.3323 -34.3323 -34.3110 -34.3110
   -15.2215 -15.2214 -15.2194 -15.2194 -15.1054 -15.1053 -15.0886 -15.0885
   -11.0990 -11.0986 -11.0958 -11.0954 -10.9583 -10.9578 -10.9541 -10.9537
   -10.8599 -10.8596 -10.8511 -10.8508 -10.7167 -10.7164 -10.7113 -10.7111
     3.1992   3.1996   3.2122   3.2126   4.9517   4.9534   4.9540   4.9557
     5.5124   5.5141   5.5150   5.5170   5.7917   5.7923   5.8055   5.8063
     6.7652   6.7655   6.7776   6.7780  10.0315  10.0320  10.0351  10.0357
    11.7710  11.7715  11.7718  11.7724  12.0622  12.0638  12.0692  12.0710

          k = 0.0000-0.5000-0.5000 (  6024 PWs)   bands (ev):

   -34.4171 -34.4171 -34.4171 -34.4171 -34.3336 -34.3336 -34.3121 -34.3121
   -15.2085 -15.2085 -15.2085 -15.2085 -15.1216 -15.1216 -15.1027 -15.1027
   -11.0903 -11.0903 -11.0899 -11.0899 -10.9884 -10.9884 -10.9838 -10.9838
   -10.8231 -10.8231 -10.8222 -10.8222 -10.7293 -10.7293 -10.7257 -10.7257
     3.7140   3.7140   3.7285   3.7285   4.3405   4.3405   4.3419   4.3419
     5.6286   5.6286   5.6432   5.6432   5.6822   5.6822   5.6833   5.6833
     7.0324   7.0324   7.0457   7.0457   9.9385   9.9385   9.9385   9.9385
    11.6063  11.6063  11.6067  11.6068  12.1388  12.1388  12.1449  12.1450

          k = 0.2500 0.2500 0.2500 (  6007 PWs)   bands (ev):

   -34.4271 -34.4271 -34.4096 -34.4096 -34.3340 -34.3340 -34.3093 -34.3093
   -15.2355 -15.2355 -15.2047 -15.2046 -15.1399 -15.1399 -15.0581 -15.0580
   -11.1393 -11.1388 -11.0936 -11.0934 -11.0438 -11.0438 -10.9001 -10.8999
   -10.8347 -10.8346 -10.7977 -10.7977 -10.7867 -10.7866 -10.6308 -10.6308
     2.4806   2.4810   4.3350   4.3357   4.6659   4.6663   4.6907   4.6909
     5.0529   5.0536   5.3958   5.3968   5.6733   5.6735   6.3591   6.3597
     6.6656   6.6658   7.4348   7.4354   9.3332   9.3332  11.0574  11.0574
    11.2544  11.2549  11.9609  11.9618  12.0068  12.0080  12.0948  12.0952

          k = 0.2500 0.2500-0.5000 (  6004 PWs)   bands (ev):

   -34.4178 -34.4178 -34.4177 -34.4177 -34.3329 -34.3329 -34.3115 -34.3115
   -15.2169 -15.2168 -15.2156 -15.2156 -15.1150 -15.1149 -15.0974 -15.0974
   -11.1180 -11.1175 -11.1143 -11.1141 -10.9988 -10.9984 -10.9977 -10.9974
   -10.8122 -10.8120 -10.8067 -10.8065 -10.6966 -10.6964 -10.6909 -10.6906
     3.3865   3.3874   3.3985   3.3990   4.5513   4.5525   4.5593   4.5604
     5.3650   5.3664   5.3773   5.3786   5.9395   5.9403   5.9458   5.9471
     7.3115   7.3120   7.3261   7.3266  10.2411  10.2414  10.2453  10.2460
    11.3163  11.3173  11.3183  11.3196  11.5889  11.5892  11.5906  11.5915

          k = 0.2500-0.5000-0.5000 (  6000 PWs)   bands (ev):

   -34.4171 -34.4171 -34.4171 -34.4171 -34.3335 -34.3335 -34.3120 -34.3120
   -15.2117 -15.2116 -15.2116 -15.2116 -15.1252 -15.1252 -15.1064 -15.1063
   -11.1282 -11.1279 -11.1258 -11.1255 -11.0381 -11.0379 -11.0378 -11.0377
   -10.7637 -10.7636 -10.7600 -10.7599 -10.6880 -10.6877 -10.6827 -10.6824
     3.7869   3.7876   3.8018   3.8024   4.0151   4.0152   4.0159   4.0161
     5.2372   5.2383   5.2501   5.2511   6.1026   6.1029   6.1039   6.1043
     7.8903   7.8911   7.9063   7.9072  10.3018  10.3018  10.3023  10.3023
    10.9638  10.9662  10.9662  10.9681  11.3417  11.3419  11.3430  11.3432

          k =-0.5000-0.5000-0.5000 (  6008 PWs)   bands (ev):

   -34.4171 -34.4171 -34.4171 -34.4171 -34.3334 -34.3334 -34.3120 -34.3120
   -15.2148 -15.2148 -15.2148 -15.2148 -15.1287 -15.1287 -15.1100 -15.1100
   -11.1590 -11.1590 -11.1555 -11.1555 -11.0741 -11.0741 -11.0721 -11.0721
   -10.7206 -10.7206 -10.7152 -10.7152 -10.6522 -10.6522 -10.6458 -10.6458
     3.7846   3.7846   3.7853   3.7853   3.8523   3.8523   3.8671   3.8671
     5.0166   5.0166   5.0274   5.0274   6.4305   6.4305   6.4323   6.4323
     8.9961   8.9961   9.0106   9.0106  10.5889  10.5889  10.5893  10.5893
    10.7731  10.7733  10.7741  10.7742  10.8388  10.8390  10.8411  10.8412

          k = 0.2500 0.0000 0.0000 (  6023 PWs)   bands (ev):

   -34.4369 -34.4369 -34.4021 -34.4021 -34.3369 -34.3369 -34.3043 -34.3043
   -15.2611 -15.2611 -15.1941 -15.1940 -15.1640 -15.1639 -15.0088 -15.0087
   -11.1801 -11.1797 -11.0821 -11.0819 -11.0664 -11.0664 -10.8706 -10.8702
   -10.8681 -10.8681 -10.8242 -10.8242 -10.6964 -10.6962 -10.6048 -10.6048
     1.7239   1.7243   4.7522   4.7527   4.7738   4.7739   4.8824   4.8825
     4.8961   4.8970   4.9772   4.9773   5.9960   5.9960   6.0072   6.0087
     7.2265   7.2269   7.3847   7.3852   8.3567   8.3568  11.0607  11.0610
    11.1918  11.1946  11.9855  11.9859  12.5035  12.5059  12.5401  12.5402

          k =-0.5000 0.0000 0.0000 (  5942 PWs)   bands (ev):

   -34.4324 -34.4324 -34.4021 -34.4021 -34.3411 -34.3411 -34.3046 -34.3046
   -15.2601 -15.2601 -15.1645 -15.1645 -15.1466 -15.1466 -15.0570 -15.0570
   -11.1511 -11.1511 -10.9997 -10.9997 -10.9441 -10.9441 -10.9181 -10.9181
   -10.9137 -10.9137 -10.8796 -10.8796 -10.7881 -10.7881 -10.6423 -10.6423
     2.5202   2.5202   3.6270   3.6270   5.0863   5.0863   5.2816   5.2816
     5.3786   5.3786   5.5168   5.5168   5.5628   5.5628   5.7977   5.7977
     5.9074   5.9074   8.3921   8.3921   9.0091   9.0091  10.4228  10.4228
    11.2703  11.2703  11.7576  11.7578  11.8736  11.8738  11.9382  11.9383

          k = 0.0000 0.2500-0.2500 (  6016 PWs)   bands (ev):

   -34.4293 -34.4293 -34.4097 -34.4097 -34.3323 -34.3323 -34.3089 -34.3089
   -15.2345 -15.2344 -15.2218 -15.2215 -15.1382 -15.1382 -15.0370 -15.0369
   -11.1285 -11.1281 -11.1118 -11.1116 -11.0328 -11.0325 -10.9053 -10.9046
   -10.8442 -10.8438 -10.7996 -10.7994 -10.7604 -10.7602 -10.6371 -10.6371
     2.1514   2.1517   4.1502   4.1516   4.9222   4.9236   5.0616   5.0660
     5.1305   5.1383   5.2047   5.2077   5.8550   5.8554   6.5504   6.5507
     6.5691   6.5699   6.7041   6.7044   9.0747   9.0747  10.8239  10.8246
    11.3408  11.3427  12.3285  12.3332  12.4402  12.4403  12.6717  12.6721

          k = 0.2500 0.0000-0.2500 (  6016 PWs)   bands (ev):

   -34.4313 -34.4313 -34.4066 -34.4066 -34.3349 -34.3349 -34.3073 -34.3073
   -15.2467 -15.2466 -15.2007 -15.2006 -15.1480 -15.1480 -15.0360 -15.0359
   -11.1481 -11.1476 -11.0791 -11.0789 -11.0446 -11.0445 -10.8697 -10.8693
   -10.8672 -10.8670 -10.8227 -10.8224 -10.7581 -10.7579 -10.6301 -10.6300
     2.1359   2.1363   4.3803   4.3820   4.8591   4.8599   4.9450   4.9465
     5.1306   5.1315   5.1476   5.1478   5.8506   5.8557   6.0344   6.0391
     6.7031   6.7037   7.2485   7.2491   8.9401   8.9403  10.8218  10.8225
    11.3470  11.3481  12.3290  12.3314  12.4952  12.4962  12.5340  12.5368

          k =-0.2500 0.0000-0.2500 (  6016 PWs)   bands (ev):

   -34.4313 -34.4313 -34.4066 -34.4066 -34.3349 -34.3349 -34.3073 -34.3073
   -15.2467 -15.2466 -15.2008 -15.2007 -15.1481 -15.1480 -15.0359 -15.0358
   -11.1483 -11.1477 -11.0794 -11.0792 -11.0447 -11.0445 -10.8693 -10.8692
   -10.8673 -10.8668 -10.8227 -10.8224 -10.7580 -10.7577 -10.6299 -10.6298
     2.1337   2.1341   4.3833   4.3850   4.8609   4.8620   4.9353   4.9366
     5.1285   5.1292   5.1447   5.1458   5.8530   5.8580   6.0424   6.0471
     6.7085   6.7091   7.2532   7.2538   8.9412   8.9413  10.8118  10.8125
    11.3444  11.3453  12.3280  12.3297  12.4908  12.4917  12.5346  12.5368

          k = 0.2500 0.0000 0.5000 (  6018 PWs)   bands (ev):

   -34.4185 -34.4185 -34.4183 -34.4183 -34.3323 -34.3323 -34.3110 -34.3110
   -15.2211 -15.2210 -15.2190 -15.2189 -15.1059 -15.1058 -15.0891 -15.0890
   -11.0943 -11.0940 -11.0897 -11.0893 -10.9708 -10.9707 -10.9695 -10.9694
   -10.8465 -10.8462 -10.8388 -10.8386 -10.7212 -10.7210 -10.7149 -10.7147
     3.1944   3.1950   3.2063   3.2069   4.9709   4.9719   4.9786   4.9798
     5.5125   5.5136   5.5177   5.5190   5.7936   5.7947   5.8083   5.8095
     6.7243   6.7250   6.7412   6.7419  10.0598  10.0601  10.0663  10.0667
    11.8595  11.8608  11.8651  11.8664  12.0015  12.0020  12.0056  12.0061

          k =-0.5000-0.2500 0.0000 (  6018 PWs)   bands (ev):

   -34.4279 -34.4279 -34.4065 -34.4065 -34.3378 -34.3378 -34.3078 -34.3078
   -15.2455 -15.2454 -15.1653 -15.1652 -15.1507 -15.1507 -15.0735 -15.0735
   -11.1390 -11.1384 -11.0325 -11.0325 -10.9617 -10.9613 -10.9516 -10.9514
   -10.8689 -10.8685 -10.8566 -10.8565 -10.7694 -10.7692 -10.6661 -10.6658
     2.8514   2.8515   3.8444   3.8449   4.5995   4.6021   5.0695   5.0726
     5.4759   5.4803   5.5469   5.5509   5.7485   5.7488   5.8507   5.8514
     5.9002   5.9024   8.0006   8.0009   9.3455   9.3456  10.3116  10.3117
    11.6826  11.6832  11.8951  11.9002  12.0479  12.0525  12.0571  12.0577

          k =-0.5000 0.0000 0.5000 (  6024 PWs)   bands (ev):

   -34.4172 -34.4172 -34.4172 -34.4172 -34.3335 -34.3335 -34.3120 -34.3120
   -15.2074 -15.2074 -15.2073 -15.2073 -15.1229 -15.1229 -15.1040 -15.1040
   -11.0765 -11.0765 -11.0710 -11.0710 -11.0149 -11.0149 -11.0101 -11.0101
   -10.8036 -10.8036 -10.7917 -10.7917 -10.7482 -10.7482 -10.7364 -10.7364
     3.6801   3.6801   3.6842   3.6842   4.3998   4.3998   4.4156   4.4156
     5.6128   5.6128   5.6259   5.6259   5.7017   5.7017   5.7044   5.7044
     6.9505   6.9505   6.9714   6.9714  10.0206  10.0206  10.0211  10.0211
    11.8378  11.8378  11.8399  11.8400  11.8926  11.8926  11.9002  11.9002

          k =-0.2500 0.2500-0.2500 (  6007 PWs)   bands (ev):

   -34.4271 -34.4271 -34.4096 -34.4096 -34.3340 -34.3340 -34.3093 -34.3093
   -15.2356 -15.2355 -15.2047 -15.2045 -15.1399 -15.1399 -15.0582 -15.0580
   -11.1391 -11.1386 -11.0933 -11.0930 -11.0440 -11.0437 -10.9001 -10.8999
   -10.8351 -10.8345 -10.7980 -10.7979 -10.7868 -10.7866 -10.6310 -10.6309
     2.4832   2.4837   4.3378   4.3406   4.6622   4.6634   4.6909   4.6919
     5.0484   5.0530   5.4013   5.4022   5.6729   5.6748   6.3507   6.3513
     6.6601   6.6606   7.4339   7.4346   9.3334   9.3335  11.0588  11.0594
    11.2560  11.2567  11.9584  11.9734  12.0076  12.0082  12.0886  12.1025

          k = 0.2500-0.2500-0.2500 (  6007 PWs)   bands (ev):

   -34.4271 -34.4271 -34.4096 -34.4096 -34.3340 -34.3340 -34.3093 -34.3093
   -15.2355 -15.2355 -15.2045 -15.2045 -15.1399 -15.1399 -15.0582 -15.0581
   -11.1388 -11.1384 -11.0929 -11.0929 -11.0438 -11.0438 -10.9001 -10.9000
   -10.8349 -10.8348 -10.7981 -10.7979 -10.7872 -10.7869 -10.6311 -10.6311
     2.4858   2.4863   4.3436   4.3442   4.6589   4.6594   4.6915   4.6917
     5.0480   5.0487   5.4070   5.4081   5.6735   5.6737   6.3408   6.3415
     6.6570   6.6571   7.4328   7.4334   9.3337   9.3338  11.0611  11.0611
    11.2581  11.2587  11.9710  11.9717  12.0062  12.0079  12.0954  12.0963

          k =-0.2500 0.2500 0.5000 (  6004 PWs)   bands (ev):

   -34.4178 -34.4178 -34.4177 -34.4177 -34.3329 -34.3329 -34.3115 -34.3115
   -15.2168 -15.2168 -15.2156 -15.2155 -15.1150 -15.1150 -15.0975 -15.0974
   -11.1176 -11.1174 -11.1142 -11.1137 -10.9988 -10.9985 -10.9978 -10.9975
   -10.8123 -10.8120 -10.8069 -10.8066 -10.6968 -10.6965 -10.6910 -10.6908
     3.3910   3.3915   3.4027   3.4035   4.5474   4.5485   4.5553   4.5566
     5.3672   5.3685   5.3800   5.3813   5.9343   5.9356   5.9408   5.9417
     7.3118   7.3122   7.3257   7.3262  10.2410  10.2417  10.2454  10.2457
    11.3160  11.3179  11.3185  11.3196  11.5855  11.5866  11.5879  11.5884

          k =-0.5000-0.2500 0.2500 (  6004 PWs)   bands (ev):

   -34.4248 -34.4248 -34.4096 -34.4096 -34.3358 -34.3358 -34.3097 -34.3097
   -15.2366 -15.2365 -15.1799 -15.1798 -15.1423 -15.1423 -15.0862 -15.0862
   -11.1491 -11.1485 -11.0543 -11.0541 -11.0355 -11.0351 -10.9848 -10.9845
   -10.8267 -10.8260 -10.7823 -10.7822 -10.7443 -10.7442 -10.6584 -10.6580
     3.1003   3.1003   3.8722   3.8728   4.5135   4.5201   4.5785   4.5795
     4.9617   4.9682   5.5552   5.5558   5.9148   5.9171   5.9838   5.9848
     6.7475   6.7480   8.2458   8.2463   9.7072   9.7072  10.4262  10.4264
    11.1982  11.2017  11.4589  11.4589  11.4694  11.4707  11.6520  11.6521

          k = 0.5000-0.2500-0.2500 (  6004 PWs)   bands (ev):

   -34.4248 -34.4248 -34.4096 -34.4096 -34.3358 -34.3358 -34.3097 -34.3097
   -15.2365 -15.2365 -15.1799 -15.1799 -15.1423 -15.1423 -15.0862 -15.0862
   -11.1488 -11.1488 -11.0542 -11.0542 -11.0353 -11.0353 -10.9847 -10.9846
   -10.8263 -10.8263 -10.7823 -10.7823 -10.7443 -10.7443 -10.6582 -10.6582
     3.1003   3.1003   3.8723   3.8724   4.5177   4.5178   4.5785   4.5787
     4.9647   4.9648   5.5552   5.5552   5.9156   5.9156   5.9844   5.9845
     6.7482   6.7482   8.2458   8.2458   9.7072   9.7072  10.4262  10.4262
    11.2003  11.2004  11.4591  11.4592  11.4701  11.4704  11.6520  11.6521

          k =-0.5000 0.2500 0.5000 (  6000 PWs)   bands (ev):

   -34.4171 -34.4171 -34.4171 -34.4171 -34.3335 -34.3335 -34.3120 -34.3120
   -15.2111 -15.2111 -15.2110 -15.2110 -15.1258 -15.1258 -15.1070 -15.1070
   -11.1241 -11.1238 -11.1201 -11.1198 -11.0459 -11.0456 -11.0433 -11.0430
   -10.7592 -10.7591 -10.7523 -10.7521 -10.6936 -10.6934 -10.6859 -10.6858
     3.7396   3.7401   3.7421   3.7425   4.0779   4.0785   4.0928   4.0934
     5.2229   5.2239   5.2323   5.2332   6.1121   6.1127   6.1143   6.1149
     7.8408   7.8412   7.8555   7.8558  10.3855  10.3858  10.3863  10.3867
    11.1233  11.1247  11.1254  11.1266  11.1928  11.1940  11.1959  11.1971

     the Fermi energy is    10.1785 ev

!    total energy              =   -2250.78284064 Ry
     Harris-Foulkes estimate   =   -2250.78284065 Ry
     estimated scf accuracy    <       0.00000001 Ry

     total all-electron energy =    -90255.126209 Ry

     The total energy is the sum of the following terms:

     one-electron contribution =     -39.84920558 Ry
     hartree contribution      =      41.94203054 Ry
     xc contribution           =    -258.65938762 Ry
     ewald contribution        =    -246.15875126 Ry
     one-center paw contrib.   =   -1748.05504978 Ry
     smearing contrib. (-TS)   =      -0.00247694 Ry

     convergence has been achieved in   8 iterations

     Writing output data file 2314.save
 
     init_run     :      1.85s CPU      3.58s WALL (       1 calls)
     electrons    :     29.49s CPU     31.26s WALL (       1 calls)

     Called by init_run:
     wfcinit      :      1.57s CPU      2.56s WALL (       1 calls)
     potinit      :      0.13s CPU      0.28s WALL (       1 calls)

     Called by electrons:
     c_bands      :     24.33s CPU     25.01s WALL (       8 calls)
     sum_band     :      3.45s CPU      3.56s WALL (       8 calls)
     v_of_rho     :      0.02s CPU      0.04s WALL (       9 calls)
     newd         :      0.69s CPU      0.75s WALL (       9 calls)
     PAW_pot      :      1.11s CPU      1.21s WALL (       9 calls)
     mix_rho      :      0.05s CPU      0.09s WALL (       8 calls)

     Called by c_bands:
     init_us_2    :      0.12s CPU      0.13s WALL (     408 calls)
     cegterg      :     22.92s CPU     23.52s WALL (     192 calls)

     Called by sum_band:
     sum_band:bec :      0.90s CPU      0.91s WALL (     192 calls)
     addusdens    :      0.14s CPU      0.14s WALL (       8 calls)

     Called by *egterg:
     h_psi        :     12.83s CPU     13.34s WALL (     885 calls)
     s_psi        :      1.36s CPU      1.37s WALL (     885 calls)
     g_psi        :      0.05s CPU      0.05s WALL (     669 calls)
     cdiaghg      :      6.77s CPU      7.15s WALL (     861 calls)

     Called by h_psi:
     h_psi:pot    :     12.69s CPU     13.20s WALL (     885 calls)
     h_psi:calbec :      0.80s CPU      0.87s WALL (     885 calls)
     vloc_psi     :     10.45s CPU     10.87s WALL (     885 calls)
     add_vuspsi   :      1.44s CPU      1.46s WALL (     885 calls)

     General routines
     calbec       :      1.06s CPU      1.13s WALL (    1077 calls)
     fft          :      0.03s CPU      0.26s WALL (     167 calls)
     fftw         :     11.35s CPU     11.81s WALL (  161844 calls)
     davcio       :      0.00s CPU      0.00s WALL (      24 calls)
 
     Parallel routines
     fft_scatter  :      5.74s CPU      6.01s WALL (  162011 calls)
 
     PWSCF        :  0m32.22s CPU     1m 8.60s WALL

 
   This run was terminated on:  10:52:38  16Nov2022            

=------------------------------------------------------------------------------=
   JOB DONE.
=------------------------------------------------------------------------------=
Removing 2314 from /home/shaharpit/tmp
