
     Program PWSCF v.6.1 (svn rev. 13369) starts on 30Nov2022 at 13:42:29 

     This program is part of the open-source Quantum ESPRESSO suite
     for quantum simulation of materials; please cite
         "P. Giannozzi et al., J. Phys.:Condens. Matter 21 395502 (2009);
          URL http://www.quantum-espresso.org", 
     in publications or presentations arising from this work. More details at
     http://www.quantum-espresso.org/quote

     Parallel version (MPI), running on     4 processors
     R & G space division:  proc/nbgrp/npool/nimage =       4
     Reading input from ./fcc_50_1.1.in
Warning: card &IONS ignored
Warning: card 	ION_DYNAMICS='BFGS', ignored
Warning: card / ignored
Warning: card &CELL ignored
Warning: card / ignored

     Current dimensions of program PWSCF are:
     Max number of different atomic species (ntypx) = 10
     Max number of k-points (npk) =  40000
     Max angular momentum in pseudopotentials (lmaxx) =  3
               file Gd.rel-pbe-spdn-kjpaw_psl.1.0.0.UPF: wavefunction(s)  5P 5P renormalized
               file H.pbe-kjpaw_psl.0.1.UPF: wavefunction(s)  1S renormalized

     Subspace diagonalization in iterative solution of the eigenvalue problem:
     a serial algorithm will be used

 
     Parallelization info
     --------------------
     sticks:   dense  smooth     PW     G-vecs:    dense   smooth      PW
     Min         425     425    122                13229    13229    2054
     Max         426     426    123                13232    13232    2055
     Sum        1701    1701    489                52923    52923    8217
 


     bravais-lattice index     =            0
     lattice parameter (alat)  =      10.3447  a.u.
     unit-cell volume          =    1107.0280 (a.u.)^3
     number of atoms/cell      =            8
     number of atomic types    =            2
     number of electrons       =        48.00
     number of Kohn-Sham states=           58
     kinetic-energy cutoff     =      50.0000  Ry
     charge density cutoff     =     200.0000  Ry
     convergence threshold     =      1.0E-06
     mixing beta               =       0.7000
     number of iterations used =            8  plain     mixing
     Exchange-correlation      =  SLA  PW   PBX  PBC ( 1  4  3  4 0 0)
     Non magnetic calculation with spin-orbit


     celldm(1)=  10.344739  celldm(2)=   0.000000  celldm(3)=   0.000000
     celldm(4)=   0.000000  celldm(5)=   0.000000  celldm(6)=   0.000000

     crystal axes: (cart. coord. in units of alat)
               a(1) = (   1.000000   0.000000   0.000000 )  
               a(2) = (   0.000000   1.000000   0.000000 )  
               a(3) = (   0.000000   0.000000   1.000000 )  

     reciprocal axes: (cart. coord. in units 2 pi/alat)
               b(1) = (  1.000000  0.000000  0.000000 )  
               b(2) = (  0.000000  1.000000  0.000000 )  
               b(3) = (  0.000000  0.000000  1.000000 )  


     PseudoPot. # 1 for Gd read from file:
     /home/shaharpit/MeamGdH/dft/qe_potentials/Gd.rel-pbe-spdn-kjpaw_psl.1.0.0.UPF
     MD5 check sum: cf50ec46d1536b4a0251694df1946a53
     Pseudo is Projector augmented-wave + core cor, Zval = 11.0
     Generated using "atomic" code by A. Dal Corso  v.6.2.2
     Shape of augmentation charge: PSQ
     Using radial grid of 1263 points, 10 beta functions with: 
                l(1) =   0
                l(2) =   0
                l(3) =   1
                l(4) =   1
                l(5) =   1
                l(6) =   1
                l(7) =   2
                l(8) =   2
                l(9) =   2
               l(10) =   2
     Q(r) pseudized with 0 coefficients 


     PseudoPot. # 2 for  H read from file:
     /home/shaharpit/MeamGdH/dft/qe_potentials/H.pbe-kjpaw_psl.0.1.UPF
     MD5 check sum: fbb168fef676c0aaadbafd73f5b1efa8
     Pseudo is Projector augmented-wave, Zval =  1.0
     Generated using "atomic" code by A. Dal Corso  v.5.0.2 svn rev. 9415
     Shape of augmentation charge: PSQ
     Using radial grid of  929 points,  2 beta functions with: 
                l(1) =   0
                l(2) =   0
     Q(r) pseudized with 0 coefficients 


     atomic species   valence    mass     pseudopotential
        Gd            11.00   157.25000     Gd( 1.00)
        H              1.00     1.00794      H( 1.00)

      2 Sym. Ops. (no inversion) found



   Cartesian axes

     site n.     atom                  positions (alat units)
         1           Gd  tau(   1) = (   0.0000000   0.0000000   0.0000000  )
         2           Gd  tau(   2) = (   0.0000000   0.5000000   0.5000000  )
         3           Gd  tau(   3) = (   0.5000000   0.0000000   0.5000000  )
         4           Gd  tau(   4) = (   0.5000000   0.5000000   0.0000000  )
         5           H   tau(   5) = (   0.2500000   0.7539000   0.7539000  )
         6           H   tau(   6) = (   0.2500000   0.7501000   0.2500000  )
         7           H   tau(   7) = (   0.2500000   0.2500000   0.2500000  )
         8           H   tau(   8) = (   0.2500000   0.2500000   0.7501000  )

     number of k points=    24  gaussian smearing, width (Ry)=  0.0100
                       cart. coord. in units 2pi/alat
        k(    1) = (   0.0000000   0.0000000   0.0000000), wk =   0.0156250
        k(    2) = (   0.0000000   0.0000000   0.2500000), wk =   0.0625000
        k(    3) = (   0.0000000   0.0000000  -0.5000000), wk =   0.0312500
        k(    4) = (   0.0000000   0.2500000   0.2500000), wk =   0.0312500
        k(    5) = (   0.0000000   0.2500000  -0.5000000), wk =   0.0625000
        k(    6) = (   0.0000000  -0.5000000  -0.5000000), wk =   0.0156250
        k(    7) = (   0.2500000   0.2500000   0.2500000), wk =   0.0312500
        k(    8) = (   0.2500000   0.2500000  -0.5000000), wk =   0.0625000
        k(    9) = (   0.2500000  -0.5000000  -0.5000000), wk =   0.0312500
        k(   10) = (  -0.5000000  -0.5000000  -0.5000000), wk =   0.0156250
        k(   11) = (   0.2500000   0.0000000   0.0000000), wk =   0.0312500
        k(   12) = (  -0.5000000   0.0000000   0.0000000), wk =   0.0156250
        k(   13) = (   0.0000000   0.2500000  -0.2500000), wk =   0.0312500
        k(   14) = (   0.2500000   0.0000000  -0.2500000), wk =   0.0625000
        k(   15) = (  -0.2500000   0.0000000  -0.2500000), wk =   0.0625000
        k(   16) = (   0.2500000   0.0000000   0.5000000), wk =   0.0625000
        k(   17) = (  -0.5000000  -0.2500000   0.0000000), wk =   0.0625000
        k(   18) = (  -0.5000000   0.0000000   0.5000000), wk =   0.0312500
        k(   19) = (  -0.2500000   0.2500000  -0.2500000), wk =   0.0625000
        k(   20) = (   0.2500000  -0.2500000  -0.2500000), wk =   0.0312500
        k(   21) = (  -0.2500000   0.2500000   0.5000000), wk =   0.0625000
        k(   22) = (  -0.5000000  -0.2500000   0.2500000), wk =   0.0312500
        k(   23) = (   0.5000000  -0.2500000  -0.2500000), wk =   0.0312500
        k(   24) = (  -0.5000000   0.2500000   0.5000000), wk =   0.0625000

     Dense  grid:    52923 G-vectors     FFT dimensions: (  48,  48,  48)

     Estimated max dynamical RAM per process >     124.70MB

     Estimated total allocated dynamical RAM >     498.80MB

     Check: negative/imaginary core charge=   -0.000002    0.000000

     Initial potential from superposition of free atoms

     starting charge   47.92377, renormalised to   48.00000
     Starting wfc are  112 randomized atomic wfcs
     Checking if some PAW data can be deallocated... 

     total cpu time spent up to now is        7.5 secs

     per-process dynamical memory:   150.1 Mb

     Self-consistent Calculation

     iteration #  1     ecut=    50.00 Ry     beta=0.70
     Davidson diagonalization with overlap
     ethr =  1.00E-02,  avg # of iterations =  2.0

     Threshold (ethr) on eigenvalues was too large:
     Diagonalizing with lowered threshold

     Davidson diagonalization with overlap
     ethr =  8.38E-04,  avg # of iterations =  1.4

     total cpu time spent up to now is       24.3 secs

     total energy              =   -2243.22022522 Ry
     Harris-Foulkes estimate   =   -2243.49444120 Ry
     estimated scf accuracy    <       0.41408925 Ry

     iteration #  2     ecut=    50.00 Ry     beta=0.70
     Davidson diagonalization with overlap
     ethr =  8.63E-04,  avg # of iterations =  3.0

     total cpu time spent up to now is       34.9 secs

     total energy              =   -2243.28820696 Ry
     Harris-Foulkes estimate   =   -2243.41147645 Ry
     estimated scf accuracy    <       0.22732025 Ry

     iteration #  3     ecut=    50.00 Ry     beta=0.70
     Davidson diagonalization with overlap
     ethr =  4.74E-04,  avg # of iterations =  2.4

     total cpu time spent up to now is       44.9 secs

     total energy              =   -2243.34606867 Ry
     Harris-Foulkes estimate   =   -2243.35267117 Ry
     estimated scf accuracy    <       0.01383089 Ry

     iteration #  4     ecut=    50.00 Ry     beta=0.70
     Davidson diagonalization with overlap
     ethr =  2.88E-05,  avg # of iterations =  2.2

     total cpu time spent up to now is       54.7 secs

     total energy              =   -2243.34935516 Ry
     Harris-Foulkes estimate   =   -2243.34934822 Ry
     estimated scf accuracy    <       0.00017931 Ry

     iteration #  5     ecut=    50.00 Ry     beta=0.70
     Davidson diagonalization with overlap
     ethr =  3.74E-07,  avg # of iterations =  4.4

     total cpu time spent up to now is       66.7 secs

     total energy              =   -2243.34940046 Ry
     Harris-Foulkes estimate   =   -2243.34943152 Ry
     estimated scf accuracy    <       0.00006185 Ry

     iteration #  6     ecut=    50.00 Ry     beta=0.70
     Davidson diagonalization with overlap
     ethr =  1.29E-07,  avg # of iterations =  3.8

     total cpu time spent up to now is       77.3 secs

     total energy              =   -2243.34941499 Ry
     Harris-Foulkes estimate   =   -2243.34942426 Ry
     estimated scf accuracy    <       0.00002356 Ry

     iteration #  7     ecut=    50.00 Ry     beta=0.70
     Davidson diagonalization with overlap
     ethr =  4.91E-08,  avg # of iterations =  3.1

     total cpu time spent up to now is       87.3 secs

     End of self-consistent calculation

          k = 0.0000 0.0000 0.0000 (  6619 PWs)   bands (ev):

   -36.4140 -36.4140 -36.3838 -36.3838 -36.3780 -36.3780 -36.3704 -36.3704
   -17.1525 -17.1525 -17.1474 -17.1474 -17.1405 -17.1405 -17.0022 -17.0022
   -12.9726 -12.9726 -12.9724 -12.9724 -12.9459 -12.9459 -12.7910 -12.7910
   -12.7623 -12.7623 -12.7618 -12.7618 -12.6323 -12.6323 -12.5947 -12.5947
     1.6034   1.6034   3.8518   3.8518   3.8529   3.8529   4.3245   4.3245
     6.6186   6.6186   6.6188   6.6188   6.6235   6.6235   7.7431   7.7431
     8.7871   8.7871   8.7876   8.7876   9.4044   9.4044   9.4164   9.4164
     9.5813   9.5813

          k = 0.0000 0.0000 0.2500 (  6595 PWs)   bands (ev):

   -36.4092 -36.4092 -36.3855 -36.3855 -36.3802 -36.3802 -36.3713 -36.3713
   -17.1513 -17.1507 -17.1433 -17.1423 -17.1256 -17.1251 -17.0237 -17.0236
   -12.9540 -12.9539 -12.9291 -12.9285 -12.9249 -12.9243 -12.8128 -12.8125
   -12.7855 -12.7854 -12.7390 -12.7390 -12.6824 -12.6823 -12.6228 -12.6228
     1.9398   1.9401   3.5634   3.5635   3.9642   3.9651   4.3104   4.3112
     6.7585   6.7586   6.9934   6.9937   6.9969   6.9970   7.5139   7.5139
     8.5685   8.5686   8.7999   8.8006   8.8122   8.8126   9.6443   9.6444
     9.7844   9.7858

          k = 0.0000 0.0000-0.5000 (  6568 PWs)   bands (ev):

   -36.4011 -36.4011 -36.3918 -36.3918 -36.3815 -36.3815 -36.3718 -36.3718
   -17.1506 -17.1506 -17.1422 -17.1422 -17.0795 -17.0795 -17.0708 -17.0708
   -12.9181 -12.9181 -12.9108 -12.9108 -12.8383 -12.8383 -12.8325 -12.8325
   -12.8040 -12.8040 -12.7982 -12.7982 -12.6864 -12.6864 -12.6779 -12.6779
     2.7597   2.7597   2.7756   2.7756   4.1790   4.1790   4.1943   4.1943
     7.0661   7.0661   7.0768   7.0768   7.5640   7.5640   7.5647   7.5647
     8.3784   8.3784   8.3791   8.3791   9.5344   9.5345   9.5394   9.5396
    10.1001  10.1018

          k = 0.0000 0.2500 0.2500 (  6624 PWs)   bands (ev):

   -36.4053 -36.4053 -36.3858 -36.3858 -36.3824 -36.3824 -36.3727 -36.3727
   -17.1456 -17.1451 -17.1319 -17.1295 -17.1271 -17.1251 -17.0421 -17.0421
   -12.9278 -12.9270 -12.9233 -12.9218 -12.9170 -12.9162 -12.8104 -12.8104
   -12.7575 -12.7566 -12.7561 -12.7554 -12.7338 -12.7337 -12.6357 -12.6357
     2.2325   2.2326   3.6483   3.6486   3.7127   3.7143   4.2041   4.2041
     7.1261   7.1269   7.1275   7.1279   7.3163   7.3166   7.4508   7.4511
     8.5308   8.5309   8.5789   8.5792   8.6029   8.6030   9.6245   9.6245
     9.9177   9.9178

          k = 0.0000 0.2500-0.5000 (  6610 PWs)   bands (ev):

   -36.3990 -36.3990 -36.3897 -36.3897 -36.3836 -36.3836 -36.3739 -36.3739
   -17.1410 -17.1409 -17.1326 -17.1325 -17.0905 -17.0904 -17.0818 -17.0817
   -12.9190 -12.9186 -12.9155 -12.9151 -12.8433 -12.8412 -12.8389 -12.8367
   -12.7902 -12.7877 -12.7870 -12.7849 -12.6930 -12.6924 -12.6874 -12.6868
     2.9488   2.9493   2.9639   2.9644   3.9414   3.9419   3.9555   3.9561
     7.2719   7.2723   7.2798   7.2802   7.8685   7.8689   7.8695   7.8699
     8.1564   8.1564   8.1584   8.1585   9.1820   9.1823   9.1846   9.1848
    10.4346  10.4349

          k = 0.0000-0.5000-0.5000 (  6632 PWs)   bands (ev):

   -36.3958 -36.3958 -36.3867 -36.3867 -36.3867 -36.3867 -36.3769 -36.3769
   -17.1205 -17.1205 -17.1122 -17.1122 -17.1122 -17.1122 -17.1033 -17.1033
   -12.8924 -12.8924 -12.8906 -12.8906 -12.8904 -12.8904 -12.8887 -12.8887
   -12.7293 -12.7293 -12.7280 -12.7280 -12.7272 -12.7272 -12.7250 -12.7250
     3.4109   3.4109   3.4298   3.4298   3.4299   3.4299   3.4493   3.4493
     7.7211   7.7211   7.7225   7.7225   7.7226   7.7226   7.7237   7.7237
     8.6310   8.6310   8.6324   8.6325   8.6325   8.6325   8.6339   8.6340
    10.3413  10.3444

          k = 0.2500 0.2500 0.2500 (  6595 PWs)   bands (ev):

   -36.4021 -36.4021 -36.3873 -36.3873 -36.3823 -36.3823 -36.3743 -36.3743
   -17.1370 -17.1347 -17.1324 -17.1276 -17.1250 -17.1223 -17.0574 -17.0573
   -12.9362 -12.9358 -12.9239 -12.9233 -12.9143 -12.9138 -12.7881 -12.7879
   -12.7628 -12.7625 -12.7498 -12.7486 -12.7482 -12.7471 -12.6408 -12.6408
     2.3761   2.3762   3.6298   3.6312   3.6960   3.6982   4.1881   4.1881
     6.6211   6.6216   7.4320   7.4375   7.4462   7.4513   8.2053   8.2066
     8.4753   8.4762   8.5060   8.5077   8.5532   8.5549   9.6423   9.6424
     9.8552   9.8555

          k = 0.2500 0.2500-0.5000 (  6608 PWs)   bands (ev):

   -36.3976 -36.3976 -36.3884 -36.3884 -36.3849 -36.3849 -36.3752 -36.3752
   -17.1349 -17.1348 -17.1265 -17.1265 -17.0984 -17.0982 -17.0897 -17.0897
   -12.9319 -12.9318 -12.9285 -12.9282 -12.8739 -12.8733 -12.8696 -12.8691
   -12.7523 -12.7515 -12.7483 -12.7477 -12.6835 -12.6832 -12.6787 -12.6782
     2.9756   2.9762   2.9900   2.9906   3.8839   3.8845   3.8978   3.8984
     7.1913   7.1918   7.1966   7.1967   8.1271   8.1273   8.1281   8.1282
     8.4184   8.4188   8.4247   8.4250   9.2096   9.2101   9.2155   9.2159
     9.9316   9.9326

          k = 0.2500-0.5000-0.5000 (  6572 PWs)   bands (ev):

   -36.3958 -36.3958 -36.3867 -36.3867 -36.3867 -36.3867 -36.3768 -36.3768
   -17.1217 -17.1217 -17.1134 -17.1134 -17.1134 -17.1134 -17.1045 -17.1045
   -12.9218 -12.9218 -12.9206 -12.9205 -12.9166 -12.9165 -12.9153 -12.9153
   -12.7003 -12.7002 -12.6990 -12.6990 -12.6944 -12.6943 -12.6929 -12.6928
     3.3465   3.3466   3.3650   3.3650   3.3651   3.3651   3.3839   3.3840
     7.8257   7.8263   7.8288   7.8289   7.8289   7.8290   7.8313   7.8319
     9.0077   9.0088   9.0124   9.0126   9.0126   9.0128   9.0164   9.0176
     9.7611   9.7618

          k =-0.5000-0.5000-0.5000 (  6704 PWs)   bands (ev):

   -36.3958 -36.3958 -36.3867 -36.3867 -36.3867 -36.3867 -36.3768 -36.3768
   -17.1229 -17.1229 -17.1147 -17.1147 -17.1146 -17.1146 -17.1058 -17.1058
   -12.9438 -12.9438 -12.9428 -12.9428 -12.9379 -12.9379 -12.9368 -12.9368
   -12.6762 -12.6762 -12.6751 -12.6751 -12.6693 -12.6693 -12.6681 -12.6681
     3.2848   3.2848   3.3029   3.3029   3.3029   3.3029   3.3214   3.3214
     7.9645   7.9645   7.9679   7.9679   7.9680   7.9680   7.9714   7.9714
     9.3657   9.3658   9.3669   9.3670   9.3676   9.3676   9.3689   9.3690
     9.5574   9.5585

          k = 0.2500 0.0000 0.0000 (  6595 PWs)   bands (ev):

   -36.4091 -36.4091 -36.3870 -36.3870 -36.3780 -36.3780 -36.3721 -36.3721
   -17.1487 -17.1487 -17.1471 -17.1471 -17.1237 -17.1236 -17.0234 -17.0233
   -12.9578 -12.9576 -12.9575 -12.9574 -12.8995 -12.8994 -12.7814 -12.7813
   -12.7807 -12.7806 -12.7677 -12.7677 -12.6558 -12.6558 -12.6495 -12.6494
     1.8543   1.8545   3.8884   3.8884   3.8897   3.8898   4.4049   4.4049
     5.9931   5.9933   6.9897   6.9899   6.9901   6.9903   8.2404   8.2406
     8.6360   8.6361   8.6364   8.6364   8.7055   8.7064   9.6499   9.6501
     9.7905   9.7926

          k =-0.5000 0.0000 0.0000 (  6568 PWs)   bands (ev):

   -36.3995 -36.3995 -36.3953 -36.3953 -36.3780 -36.3780 -36.3734 -36.3734
   -17.1476 -17.1476 -17.1469 -17.1469 -17.0796 -17.0796 -17.0689 -17.0689
   -12.9387 -12.9387 -12.9386 -12.9386 -12.8076 -12.8076 -12.8038 -12.8038
   -12.7958 -12.7958 -12.7575 -12.7575 -12.7156 -12.7156 -12.7087 -12.7087
     2.1660   2.1660   3.9260   3.9260   3.9276   3.9276   4.4940   4.4940
     5.3887   5.3887   7.5433   7.5433   7.5439   7.5439   8.2154   8.2154
     8.4957   8.4957   8.4957   8.4957   9.1973   9.1973   9.6640   9.6640
    10.1748  10.1750

          k = 0.0000 0.2500-0.2500 (  6624 PWs)   bands (ev):

   -36.4053 -36.4053 -36.3858 -36.3858 -36.3824 -36.3824 -36.3727 -36.3727
   -17.1455 -17.1451 -17.1319 -17.1296 -17.1271 -17.1251 -17.0421 -17.0420
   -12.9278 -12.9270 -12.9233 -12.9217 -12.9170 -12.9162 -12.8106 -12.8103
   -12.7574 -12.7568 -12.7558 -12.7554 -12.7341 -12.7337 -12.6357 -12.6356
     2.2323   2.2329   3.6462   3.6468   3.7151   3.7157   4.2035   4.2048
     7.1226   7.1228   7.1315   7.1317   7.3164   7.3165   7.4508   7.4509
     8.5308   8.5308   8.5791   8.5792   8.6028   8.6031   9.6245   9.6245
     9.9165   9.9183

          k = 0.2500 0.0000-0.2500 (  6624 PWs)   bands (ev):

   -36.4052 -36.4052 -36.3872 -36.3872 -36.3806 -36.3806 -36.3732 -36.3732
   -17.1459 -17.1454 -17.1334 -17.1316 -17.1249 -17.1236 -17.0418 -17.0418
   -12.9476 -12.9475 -12.9231 -12.9228 -12.9014 -12.9012 -12.7859 -12.7856
   -12.7797 -12.7795 -12.7527 -12.7524 -12.7275 -12.7274 -12.6423 -12.6422
     2.1411   2.1414   3.5798   3.5800   3.9869   3.9878   4.3579   4.3587
     6.2867   6.2868   7.0602   7.0604   7.3403   7.3407   8.1129   8.1134
     8.5203   8.5229   8.5520   8.5526   8.5598   8.5615   9.6293   9.6296
     9.9197   9.9207

          k =-0.2500 0.0000-0.2500 (  6624 PWs)   bands (ev):

   -36.4052 -36.4052 -36.3872 -36.3872 -36.3806 -36.3806 -36.3732 -36.3732
   -17.1459 -17.1453 -17.1335 -17.1317 -17.1249 -17.1236 -17.0418 -17.0417
   -12.9476 -12.9475 -12.9232 -12.9230 -12.9015 -12.9014 -12.7856 -12.7853
   -12.7797 -12.7794 -12.7528 -12.7526 -12.7277 -12.7275 -12.6420 -12.6419
     2.1397   2.1400   3.5790   3.5791   3.9866   3.9874   4.3577   4.3585
     6.2884   6.2885   7.0578   7.0581   7.3439   7.3443   8.1212   8.1217
     8.5231   8.5253   8.5545   8.5560   8.5613   8.5645   9.6240   9.6242
     9.9174   9.9183

          k = 0.2500 0.0000 0.5000 (  6610 PWs)   bands (ev):

   -36.3990 -36.3990 -36.3897 -36.3897 -36.3836 -36.3836 -36.3739 -36.3739
   -17.1412 -17.1411 -17.1328 -17.1327 -17.0902 -17.0901 -17.0816 -17.0815
   -12.9205 -12.9203 -12.9172 -12.9170 -12.8404 -12.8402 -12.8357 -12.8354
   -12.7899 -12.7897 -12.7867 -12.7864 -12.6925 -12.6924 -12.6869 -12.6868
     2.8429   2.8430   2.8578   2.8579   4.1888   4.1890   4.2040   4.2042
     6.8335   6.8339   6.8396   6.8400   7.8993   7.8998   7.9039   7.9044
     8.4290   8.4292   8.4297   8.4299   9.1363   9.1366   9.1444   9.1447
    10.4892  10.4913

          k =-0.5000-0.2500 0.0000 (  6610 PWs)   bands (ev):

   -36.3978 -36.3978 -36.3928 -36.3928 -36.3805 -36.3805 -36.3750 -36.3750
   -17.1405 -17.1396 -17.1356 -17.1344 -17.0909 -17.0899 -17.0804 -17.0797
   -12.9405 -12.9404 -12.9206 -12.9204 -12.8400 -12.8396 -12.8085 -12.8082
   -12.7799 -12.7792 -12.7719 -12.7713 -12.7052 -12.7047 -12.7041 -12.7038
     2.3798   2.3800   3.5948   3.5949   4.0096   4.0103   4.4085   4.4092
     5.7409   5.7410   7.6684   7.6686   7.8997   7.8999   7.9413   7.9415
     8.3144   8.3145   8.5177   8.5179   9.1157   9.1159   9.1463   9.1464
    10.4444  10.4460

          k =-0.5000 0.0000 0.5000 (  6632 PWs)   bands (ev):

   -36.3959 -36.3959 -36.3867 -36.3867 -36.3867 -36.3867 -36.3768 -36.3768
   -17.1218 -17.1218 -17.1158 -17.1158 -17.1085 -17.1085 -17.1019 -17.1019
   -12.9053 -12.9053 -12.9044 -12.9044 -12.8775 -12.8775 -12.8758 -12.8758
   -12.7330 -12.7330 -12.7310 -12.7310 -12.7234 -12.7234 -12.7216 -12.7216
     2.9300   2.9300   2.9437   2.9437   4.1989   4.1989   4.2141   4.2141
     6.6457   6.6457   6.6461   6.6461   8.4769   8.4769   8.4776   8.4776
     8.5463   8.5463   8.5468   8.5468   8.6888   8.6888   8.6934   8.6934
    10.3879  10.3898

          k =-0.2500 0.2500-0.2500 (  6595 PWs)   bands (ev):

   -36.4021 -36.4021 -36.3873 -36.3873 -36.3823 -36.3823 -36.3744 -36.3744
   -17.1369 -17.1347 -17.1324 -17.1276 -17.1250 -17.1222 -17.0574 -17.0573
   -12.9362 -12.9359 -12.9239 -12.9231 -12.9141 -12.9136 -12.7881 -12.7880
   -12.7628 -12.7623 -12.7500 -12.7490 -12.7481 -12.7470 -12.6411 -12.6410
     2.3775   2.3780   3.6292   3.6297   3.6994   3.6999   4.1869   4.1881
     6.6202   6.6206   7.4313   7.4314   7.4473   7.4474   8.2007   8.2012
     8.4727   8.4730   8.5062   8.5063   8.5536   8.5536   9.6434   9.6441
     9.8564   9.8573

          k = 0.2500-0.2500-0.2500 (  6595 PWs)   bands (ev):

   -36.4021 -36.4021 -36.3873 -36.3873 -36.3823 -36.3823 -36.3744 -36.3744
   -17.1369 -17.1347 -17.1324 -17.1276 -17.1249 -17.1222 -17.0574 -17.0574
   -12.9361 -12.9359 -12.9238 -12.9228 -12.9140 -12.9136 -12.7882 -12.7882
   -12.7625 -12.7622 -12.7501 -12.7489 -12.7485 -12.7468 -12.6413 -12.6413
     2.3792   2.3794   3.6312   3.6329   3.6975   3.6999   4.1868   4.1869
     6.6191   6.6196   7.4270   7.4326   7.4416   7.4468   8.1950   8.1963
     8.4687   8.4704   8.5059   8.5066   8.5523   8.5537   9.6454   9.6454
     9.8584   9.8587

          k =-0.2500 0.2500 0.5000 (  6608 PWs)   bands (ev):

   -36.3976 -36.3976 -36.3884 -36.3884 -36.3849 -36.3849 -36.3752 -36.3752
   -17.1348 -17.1348 -17.1265 -17.1264 -17.0984 -17.0983 -17.0898 -17.0897
   -12.9318 -12.9316 -12.9283 -12.9280 -12.8740 -12.8733 -12.8697 -12.8691
   -12.7521 -12.7514 -12.7483 -12.7476 -12.6838 -12.6833 -12.6788 -12.6785
     2.9776   2.9781   2.9919   2.9925   3.8831   3.8836   3.8970   3.8976
     7.1891   7.1893   7.1941   7.1945   8.1254   8.1255   8.1264   8.1266
     8.4154   8.4156   8.4216   8.4219   9.2113   9.2118   9.2172   9.2176
     9.9318   9.9331

          k =-0.5000-0.2500 0.2500 (  6608 PWs)   bands (ev):

   -36.3969 -36.3969 -36.3910 -36.3910 -36.3823 -36.3823 -36.3759 -36.3759
   -17.1343 -17.1329 -17.1299 -17.1280 -17.0986 -17.0971 -17.0894 -17.0883
   -12.9441 -12.9441 -12.9290 -12.9289 -12.8769 -12.8767 -12.8527 -12.8525
   -12.7450 -12.7448 -12.7410 -12.7407 -12.6902 -12.6898 -12.6871 -12.6866
     2.5465   2.5469   3.6130   3.6135   3.6843   3.6849   4.1505   4.1515
     6.2393   6.2399   7.9088   7.9089   7.9683   7.9684   8.3554   8.3567
     8.3603   8.3615   8.3781   8.3783   9.2057   9.2067   9.2302   9.2313
     9.8298   9.8304

          k = 0.5000-0.2500-0.2500 (  6608 PWs)   bands (ev):

   -36.3969 -36.3969 -36.3910 -36.3910 -36.3823 -36.3823 -36.3759 -36.3759
   -17.1343 -17.1329 -17.1299 -17.1280 -17.0986 -17.0971 -17.0894 -17.0884
   -12.9441 -12.9440 -12.9290 -12.9288 -12.8768 -12.8768 -12.8527 -12.8526
   -12.7450 -12.7447 -12.7411 -12.7406 -12.6900 -12.6899 -12.6869 -12.6868
     2.5466   2.5466   3.6147   3.6150   3.6823   3.6838   4.1510   4.1510
     6.2397   6.2397   7.9083   7.9093   7.9679   7.9686   8.3571   8.3578
     8.3605   8.3605   8.3764   8.3776   9.2054   9.2055   9.2312   9.2313
     9.8304   9.8305

          k =-0.5000 0.2500 0.5000 (  6572 PWs)   bands (ev):

   -36.3958 -36.3958 -36.3867 -36.3867 -36.3867 -36.3867 -36.3768 -36.3768
   -17.1224 -17.1223 -17.1160 -17.1159 -17.1109 -17.1108 -17.1039 -17.1038
   -12.9289 -12.9288 -12.9261 -12.9252 -12.9125 -12.9115 -12.9084 -12.9082
   -12.7014 -12.7004 -12.7000 -12.6989 -12.6943 -12.6930 -12.6923 -12.6916
     3.0084   3.0090   3.0218   3.0225   3.8196   3.8202   3.8332   3.8339
     7.1737   7.1742   7.1752   7.1756   8.3354   8.3359   8.3369   8.3373
     8.9173   8.9180   8.9183   8.9189   9.0864   9.0870   9.0917   9.0923
     9.7762   9.7768

     the Fermi energy is     8.2981 ev

!    total energy              =   -2243.34941929 Ry
     Harris-Foulkes estimate   =   -2243.34941923 Ry
     estimated scf accuracy    <       0.00000017 Ry

     total all-electron energy =    -90247.692813 Ry

     The total energy is the sum of the following terms:

     one-electron contribution =     -67.94481692 Ry
     hartree contribution      =      49.13924722 Ry
     xc contribution           =    -253.75706954 Ry
     ewald contribution        =    -222.73000693 Ry
     one-center paw contrib.   =   -1748.05203706 Ry
     smearing contrib. (-TS)   =      -0.00473607 Ry

     convergence has been achieved in   7 iterations

     Forces acting on atoms (cartesian axes, Ry/au):

     atom    1 type  1   force =     0.03440896    0.00058034    0.00058034
     atom    2 type  1   force =     0.03489342    0.00055082    0.00055082
     atom    3 type  1   force =    -0.03470292    0.00027858    0.00034691
     atom    4 type  1   force =    -0.03470292    0.00034691    0.00027858
     atom    5 type  2   force =     0.00011567   -0.00192502   -0.00192502
     atom    6 type  2   force =    -0.00000527   -0.00007699    0.00019782
     atom    7 type  2   force =    -0.00000168    0.00004753    0.00004753
     atom    8 type  2   force =    -0.00000527    0.00019782   -0.00007699

     Total force =     0.069421     Total SCF correction =     0.000228

     Writing output data file 2395.save
 
     init_run     :      5.45s CPU      6.28s WALL (       1 calls)
     electrons    :     77.85s CPU     79.98s WALL (       1 calls)
     forces       :      1.56s CPU      1.62s WALL (       1 calls)

     Called by init_run:
     wfcinit      :      4.60s CPU      5.12s WALL (       1 calls)
     potinit      :      0.42s CPU      0.49s WALL (       1 calls)

     Called by electrons:
     c_bands      :     64.17s CPU     65.40s WALL (       8 calls)
     sum_band     :      9.85s CPU     10.36s WALL (       8 calls)
     v_of_rho     :      0.10s CPU      0.11s WALL (       8 calls)
     newd         :      1.06s CPU      1.33s WALL (       8 calls)
     PAW_pot      :      3.10s CPU      3.15s WALL (       8 calls)
     mix_rho      :      0.10s CPU      0.10s WALL (       8 calls)

     Called by c_bands:
     init_us_2    :      0.63s CPU      0.64s WALL (     432 calls)
     cegterg      :     54.27s CPU     55.41s WALL (     192 calls)

     Called by sum_band:
     sum_band:bec :      0.90s CPU      0.90s WALL (     192 calls)
     addusdens    :      0.80s CPU      1.11s WALL (       8 calls)

     Called by *egterg:
     h_psi        :     37.04s CPU     38.06s WALL (     749 calls)
     s_psi        :      3.85s CPU      3.87s WALL (     749 calls)
     g_psi        :      0.24s CPU      0.24s WALL (     533 calls)
     cdiaghg      :      4.23s CPU      4.53s WALL (     701 calls)

     Called by h_psi:
     h_psi:pot    :     36.17s CPU     37.14s WALL (     749 calls)
     h_psi:calbec :      2.97s CPU      3.10s WALL (     749 calls)
     vloc_psi     :     29.39s CPU     30.21s WALL (     749 calls)
     add_vuspsi   :      3.80s CPU      3.83s WALL (     749 calls)

     General routines
     calbec       :      4.54s CPU      4.71s WALL (    1037 calls)
     fft          :      0.09s CPU      0.24s WALL (     165 calls)
     fftw         :     29.01s CPU     29.79s WALL (  143156 calls)
     davcio       :      0.00s CPU      0.06s WALL (      24 calls)
 
     Parallel routines
     fft_scatter  :     11.14s CPU     11.51s WALL (  143321 calls)
 
     PWSCF        :  1m25.95s CPU     2m 1.35s WALL

 
   This run was terminated on:  13:44:30  30Nov2022            

=------------------------------------------------------------------------------=
   JOB DONE.
=------------------------------------------------------------------------------=
Removing 2395 from /home/shaharpit/tmp
