
     Program PWSCF v.6.1 (svn rev. 13369) starts on 16Nov2022 at 10:49:59 

     This program is part of the open-source Quantum ESPRESSO suite
     for quantum simulation of materials; please cite
         "P. Giannozzi et al., J. Phys.:Condens. Matter 21 395502 (2009);
          URL http://www.quantum-espresso.org", 
     in publications or presentations arising from this work. More details at
     http://www.quantum-espresso.org/quote

     Parallel version (MPI), running on    32 processors
     R & G space division:  proc/nbgrp/npool/nimage =      32
     Reading input from ./fcc_100_1.in
Warning: card &IONS ignored
Warning: card 	ION_DYNAMICS='BFGS', ignored
Warning: card / ignored
Warning: card &CELL ignored
Warning: card / ignored

     Current dimensions of program PWSCF are:
     Max number of different atomic species (ntypx) = 10
     Max number of k-points (npk) =  40000
     Max angular momentum in pseudopotentials (lmaxx) =  3
               file Gd.rel-pbe-spdn-kjpaw_psl.1.0.0.UPF: wavefunction(s)  5P 5P renormalized
               file H.pbe-kjpaw_psl.0.1.UPF: wavefunction(s)  1S renormalized

     Subspace diagonalization in iterative solution of the eigenvalue problem:
     a serial algorithm will be used

 
     Parallelization info
     --------------------
     sticks:   dense  smooth     PW     G-vecs:    dense   smooth      PW
     Min          49      49     14                 1495     1495     233
     Max          50      50     16                 1500     1500     236
     Sum        1597    1597    465                47937    47937    7497
 


     bravais-lattice index     =            0
     lattice parameter (alat)  =      10.0212  a.u.
     unit-cell volume          =    1006.3788 (a.u.)^3
     number of atoms/cell      =           12
     number of atomic types    =            2
     number of electrons       =        52.00
     number of Kohn-Sham states=           62
     kinetic-energy cutoff     =      50.0000  Ry
     charge density cutoff     =     200.0000  Ry
     convergence threshold     =      1.0E-06
     mixing beta               =       0.7000
     number of iterations used =            8  plain     mixing
     Exchange-correlation      =  SLA  PW   PBX  PBC ( 1  4  3  4 0 0)
     Non magnetic calculation with spin-orbit


     celldm(1)=  10.021218  celldm(2)=   0.000000  celldm(3)=   0.000000
     celldm(4)=   0.000000  celldm(5)=   0.000000  celldm(6)=   0.000000

     crystal axes: (cart. coord. in units of alat)
               a(1) = (   1.000000   0.000000   0.000000 )  
               a(2) = (   0.000000   1.000000   0.000000 )  
               a(3) = (   0.000000   0.000000   1.000000 )  

     reciprocal axes: (cart. coord. in units 2 pi/alat)
               b(1) = (  1.000000  0.000000  0.000000 )  
               b(2) = (  0.000000  1.000000  0.000000 )  
               b(3) = (  0.000000  0.000000  1.000000 )  


     PseudoPot. # 1 for Gd read from file:
     /home/shaharpit/MeamGdH/dft/qe_potentials/Gd.rel-pbe-spdn-kjpaw_psl.1.0.0.UPF
     MD5 check sum: cf50ec46d1536b4a0251694df1946a53
     Pseudo is Projector augmented-wave + core cor, Zval = 11.0
     Generated using "atomic" code by A. Dal Corso  v.6.2.2
     Shape of augmentation charge: PSQ
     Using radial grid of 1263 points, 10 beta functions with: 
                l(1) =   0
                l(2) =   0
                l(3) =   1
                l(4) =   1
                l(5) =   1
                l(6) =   1
                l(7) =   2
                l(8) =   2
                l(9) =   2
               l(10) =   2
     Q(r) pseudized with 0 coefficients 


     PseudoPot. # 2 for  H read from file:
     /home/shaharpit/MeamGdH/dft/qe_potentials/H.pbe-kjpaw_psl.0.1.UPF
     MD5 check sum: fbb168fef676c0aaadbafd73f5b1efa8
     Pseudo is Projector augmented-wave, Zval =  1.0
     Generated using "atomic" code by A. Dal Corso  v.5.0.2 svn rev. 9415
     Shape of augmentation charge: PSQ
     Using radial grid of  929 points,  2 beta functions with: 
                l(1) =   0
                l(2) =   0
     Q(r) pseudized with 0 coefficients 


     atomic species   valence    mass     pseudopotential
        Gd            11.00   157.25000     Gd( 1.00)
        H              1.00     1.00794      H( 1.00)

      2 Sym. Ops. (no inversion) found



   Cartesian axes

     site n.     atom                  positions (alat units)
         1           Gd  tau(   1) = (   0.0000000   0.0000000   0.0000000  )
         2           Gd  tau(   2) = (   0.0000000   0.5000000   0.5000000  )
         3           Gd  tau(   3) = (   0.5000000   0.0000000   0.5000000  )
         4           Gd  tau(   4) = (   0.5000000   0.5000000   0.0000000  )
         5           H   tau(   5) = (   0.2500000   0.7539000   0.7539000  )
         6           H   tau(   6) = (   0.2500000   0.7501000   0.2500000  )
         7           H   tau(   7) = (   0.2500000   0.2500000   0.2500000  )
         8           H   tau(   8) = (   0.2500000   0.2500000   0.7501000  )
         9           H   tau(   9) = (   0.7501000   0.2500000   0.7501000  )
        10           H   tau(  10) = (   0.7501000   0.2500000   0.2500000  )
        11           H   tau(  11) = (   0.7501000   0.7501000   0.2500000  )
        12           H   tau(  12) = (   0.7501000   0.7501000   0.7501000  )

     number of k points=    24  gaussian smearing, width (Ry)=  0.0100
                       cart. coord. in units 2pi/alat
        k(    1) = (   0.0000000   0.0000000   0.0000000), wk =   0.0156250
        k(    2) = (   0.0000000   0.0000000   0.2500000), wk =   0.0625000
        k(    3) = (   0.0000000   0.0000000  -0.5000000), wk =   0.0312500
        k(    4) = (   0.0000000   0.2500000   0.2500000), wk =   0.0312500
        k(    5) = (   0.0000000   0.2500000  -0.5000000), wk =   0.0625000
        k(    6) = (   0.0000000  -0.5000000  -0.5000000), wk =   0.0156250
        k(    7) = (   0.2500000   0.2500000   0.2500000), wk =   0.0312500
        k(    8) = (   0.2500000   0.2500000  -0.5000000), wk =   0.0625000
        k(    9) = (   0.2500000  -0.5000000  -0.5000000), wk =   0.0312500
        k(   10) = (  -0.5000000  -0.5000000  -0.5000000), wk =   0.0156250
        k(   11) = (   0.2500000   0.0000000   0.0000000), wk =   0.0312500
        k(   12) = (  -0.5000000   0.0000000   0.0000000), wk =   0.0156250
        k(   13) = (   0.0000000   0.2500000  -0.2500000), wk =   0.0312500
        k(   14) = (   0.2500000   0.0000000  -0.2500000), wk =   0.0625000
        k(   15) = (  -0.2500000   0.0000000  -0.2500000), wk =   0.0625000
        k(   16) = (   0.2500000   0.0000000   0.5000000), wk =   0.0625000
        k(   17) = (  -0.5000000  -0.2500000   0.0000000), wk =   0.0625000
        k(   18) = (  -0.5000000   0.0000000   0.5000000), wk =   0.0312500
        k(   19) = (  -0.2500000   0.2500000  -0.2500000), wk =   0.0625000
        k(   20) = (   0.2500000  -0.2500000  -0.2500000), wk =   0.0312500
        k(   21) = (  -0.2500000   0.2500000   0.5000000), wk =   0.0625000
        k(   22) = (  -0.5000000  -0.2500000   0.2500000), wk =   0.0312500
        k(   23) = (   0.5000000  -0.2500000  -0.2500000), wk =   0.0312500
        k(   24) = (  -0.5000000   0.2500000   0.5000000), wk =   0.0625000

     Dense  grid:    47937 G-vectors     FFT dimensions: (  45,  45,  45)

     Estimated max dynamical RAM per process >      17.01MB

     Estimated total allocated dynamical RAM >     544.41MB

     Check: negative/imaginary core charge=   -0.000002    0.000000

     Initial potential from superposition of free atoms

     starting charge   51.92374, renormalised to   52.00000
     Starting wfc are  120 randomized atomic wfcs
     Checking if some PAW data can be deallocated... 

     total cpu time spent up to now is        6.2 secs

     per-process dynamical memory:    59.1 Mb

     Self-consistent Calculation

     iteration #  1     ecut=    50.00 Ry     beta=0.70
     Davidson diagonalization with overlap
     ethr =  1.00E-02,  avg # of iterations =  2.0

     total cpu time spent up to now is       11.6 secs

     total energy              =   -2248.31965391 Ry
     Harris-Foulkes estimate   =   -2248.64580147 Ry
     estimated scf accuracy    <       0.57572154 Ry

     iteration #  2     ecut=    50.00 Ry     beta=0.70
     Davidson diagonalization with overlap
     ethr =  1.11E-03,  avg # of iterations =  2.9

     total cpu time spent up to now is       17.7 secs

     total energy              =   -2248.42235599 Ry
     Harris-Foulkes estimate   =   -2248.42758133 Ry
     estimated scf accuracy    <       0.00864909 Ry

     iteration #  3     ecut=    50.00 Ry     beta=0.70
     Davidson diagonalization with overlap
     ethr =  1.66E-05,  avg # of iterations =  2.9

     total cpu time spent up to now is       24.5 secs

     total energy              =   -2248.42525877 Ry
     Harris-Foulkes estimate   =   -2248.42530111 Ry
     estimated scf accuracy    <       0.00029468 Ry

     iteration #  4     ecut=    50.00 Ry     beta=0.70
     Davidson diagonalization with overlap
     ethr =  5.67E-07,  avg # of iterations =  6.9

     total cpu time spent up to now is       33.7 secs

     total energy              =   -2248.42531680 Ry
     Harris-Foulkes estimate   =   -2248.42545356 Ry
     estimated scf accuracy    <       0.00032608 Ry

     iteration #  5     ecut=    50.00 Ry     beta=0.70
     Davidson diagonalization with overlap
     ethr =  5.67E-07,  avg # of iterations =  2.9

     total cpu time spent up to now is       39.8 secs

     total energy              =   -2248.42538084 Ry
     Harris-Foulkes estimate   =   -2248.42538130 Ry
     estimated scf accuracy    <       0.00000576 Ry

     iteration #  6     ecut=    50.00 Ry     beta=0.70
     Davidson diagonalization with overlap
     ethr =  1.11E-08,  avg # of iterations =  3.0

     total cpu time spent up to now is       46.8 secs

     End of self-consistent calculation

          k = 0.0000 0.0000 0.0000 (  6031 PWs)   bands (ev):

   -34.5742 -34.5742 -34.5214 -34.5214 -34.5143 -34.5143 -34.5040 -34.5040
   -15.3839 -15.3839 -15.3770 -15.3770 -15.3689 -15.3689 -15.1492 -15.1492
   -11.3152 -11.3152 -11.3120 -11.3120 -11.3092 -11.3092 -11.0026 -11.0026
   -10.9987 -10.9987 -10.9953 -10.9953 -10.7679 -10.7679 -10.7675 -10.7675
     1.7452   1.7452   4.4814   4.4814   4.4816   4.4816   4.4818   4.4818
     6.0828   6.0828   6.0850   6.0850   6.0869   6.0869   7.6393   7.6393
     7.6400   7.6400   7.6406   7.6406   8.1553   8.1553  10.6299  10.6299
    10.6315  10.6315  10.7906  10.7906  13.2274  13.2276

          k = 0.0000 0.0000 0.2500 (  6023 PWs)   bands (ev):

   -34.5659 -34.5659 -34.5251 -34.5251 -34.5175 -34.5175 -34.5053 -34.5053
   -15.3812 -15.3812 -15.3709 -15.3709 -15.3433 -15.3432 -15.1831 -15.1830
   -11.2873 -11.2871 -11.2819 -11.2816 -11.2412 -11.2411 -11.0395 -11.0393
   -11.0331 -11.0328 -10.9658 -10.9658 -10.8574 -10.8573 -10.8022 -10.8022
     2.1998   2.2000   4.6935   4.6938   4.6940   4.6946   4.7770   4.7771
     4.9996   4.9998   5.8322   5.8331   5.8344   5.8356   7.0172   7.0174
     8.0640   8.0647   8.0648   8.0655   8.6527   8.6528  10.9088  10.9089
    11.0378  11.0399  12.3183  12.3203  12.3481  12.3485

          k = 0.0000 0.0000-0.5000 (  5942 PWs)   bands (ev):

   -34.5504 -34.5504 -34.5387 -34.5387 -34.5187 -34.5187 -34.5060 -34.5060
   -15.3800 -15.3800 -15.3695 -15.3695 -15.2697 -15.2697 -15.2585 -15.2585
   -11.2489 -11.2489 -11.2400 -11.2400 -11.0913 -11.0913 -11.0818 -11.0818
   -11.0628 -11.0628 -11.0526 -11.0526 -10.8900 -10.8900 -10.8794 -10.8794
     3.4096   3.4096   3.4226   3.4226   5.1315   5.1315   5.1329   5.1329
     5.3577   5.3577   5.3595   5.3595   5.6409   5.6409   5.6588   5.6588
     8.7076   8.7076   8.7083   8.7083  10.3933  10.3933  10.4063  10.4063
    11.5184  11.5185  11.5236  11.5239  11.7894  11.7917

          k = 0.0000 0.2500 0.2500 (  6016 PWs)   bands (ev):

   -34.5589 -34.5589 -34.5254 -34.5254 -34.5217 -34.5217 -34.5079 -34.5079
   -15.3732 -15.3731 -15.3491 -15.3491 -15.3462 -15.3462 -15.2123 -15.2123
   -11.2695 -11.2695 -11.2374 -11.2371 -11.2368 -11.2366 -11.0399 -11.0399
   -10.9923 -10.9923 -10.9920 -10.9920 -10.9483 -10.9483 -10.8129 -10.8129
     2.5911   2.5911   4.7483   4.7483   4.8871   4.8879   4.8946   4.8951
     5.0386   5.0392   5.0471   5.0476   5.6902   5.6904   6.5044   6.5045
     8.4517   8.4518   8.8277   8.8277   8.8283   8.8283  10.8962  10.8963
    11.1895  11.1896  12.3949  12.3952  12.5729  12.5736

          k = 0.0000 0.2500-0.5000 (  6018 PWs)   bands (ev):

   -34.5464 -34.5464 -34.5349 -34.5349 -34.5227 -34.5227 -34.5098 -34.5098
   -15.3654 -15.3653 -15.3549 -15.3548 -15.2871 -15.2870 -15.2760 -15.2759
   -11.2445 -11.2442 -11.2398 -11.2394 -11.1114 -11.1110 -11.1059 -11.1055
   -11.0350 -11.0346 -11.0294 -11.0291 -10.8958 -10.8955 -10.8898 -10.8896
     3.6353   3.6359   3.6466   3.6472   4.8757   4.8779   4.8783   4.8806
     5.3381   5.3391   5.3405   5.3417   5.5974   5.5977   5.6120   5.6124
     9.0534   9.0535   9.0541   9.0543  10.2325  10.2329  10.2400  10.2404
    11.8744  11.8748  11.8785  11.8792  11.8985  11.8999

          k = 0.0000-0.5000-0.5000 (  6024 PWs)   bands (ev):

   -34.5400 -34.5400 -34.5291 -34.5291 -34.5291 -34.5291 -34.5156 -34.5156
   -15.3324 -15.3324 -15.3228 -15.3228 -15.3227 -15.3227 -15.3108 -15.3108
   -11.1950 -11.1950 -11.1946 -11.1946 -11.1940 -11.1940 -11.1937 -11.1937
   -10.9448 -10.9448 -10.9447 -10.9447 -10.9433 -10.9433 -10.9432 -10.9432
     4.2078   4.2078   4.2173   4.2173   4.2178   4.2178   4.2269   4.2269
     5.4658   5.4658   5.4757   5.4757   5.4758   5.4758   5.4867   5.4867
     9.8008   9.8008   9.8035   9.8035   9.8036   9.8036   9.8060   9.8060
    11.8666  11.8666  11.8702  11.8702  11.8708  11.8708

          k = 0.2500 0.2500 0.2500 (  6007 PWs)   bands (ev):

   -34.5531 -34.5531 -34.5281 -34.5281 -34.5216 -34.5216 -34.5109 -34.5109
   -15.3571 -15.3571 -15.3501 -15.3501 -15.3421 -15.3421 -15.2372 -15.2371
   -11.2508 -11.2506 -11.2472 -11.2467 -11.2442 -11.2439 -11.0321 -11.0320
   -10.9865 -10.9864 -10.9825 -10.9822 -10.9786 -10.9785 -10.8111 -10.8111
     2.8828   2.8831   4.5354   4.5363   4.5428   4.5428   4.5454   4.5459
     5.4708   5.4713   5.4727   5.4729   5.4805   5.4816   6.2524   6.2528
     9.0700   9.0701   9.0714   9.0715   9.0779   9.0781  10.9407  10.9408
    11.1398  11.1402  12.0207  12.0214  12.0223  12.0225

          k = 0.2500 0.2500-0.5000 (  6004 PWs)   bands (ev):

   -34.5437 -34.5437 -34.5324 -34.5324 -34.5253 -34.5253 -34.5122 -34.5122
   -15.3564 -15.3562 -15.3458 -15.3458 -15.3006 -15.3004 -15.2894 -15.2893
   -11.2588 -11.2585 -11.2544 -11.2541 -11.1649 -11.1644 -11.1598 -11.1597
   -10.9773 -10.9768 -10.9719 -10.9718 -10.8775 -10.8773 -10.8720 -10.8718
     3.6645   3.6652   3.6763   3.6766   4.3906   4.3916   4.3981   4.3989
     5.6966   5.6974   5.7018   5.7025   5.7384   5.7390   5.7525   5.7530
     9.4196   9.4199   9.4221   9.4224  10.3594  10.3598  10.3670  10.3675
    11.2550  11.2559  11.2574  11.2581  11.5380  11.5388

          k = 0.2500-0.5000-0.5000 (  6000 PWs)   bands (ev):

   -34.5399 -34.5399 -34.5290 -34.5290 -34.5290 -34.5290 -34.5155 -34.5155
   -15.3354 -15.3354 -15.3258 -15.3258 -15.3257 -15.3257 -15.3138 -15.3138
   -11.2394 -11.2394 -11.2391 -11.2388 -11.2333 -11.2330 -11.2326 -11.2326
   -10.8981 -10.8979 -10.8978 -10.8978 -10.8907 -10.8906 -10.8906 -10.8903
     3.8841   3.8843   3.8942   3.8943   3.8946   3.8947   3.9041   3.9044
     5.8749   5.8755   5.8849   5.8849   5.8852   5.8852   5.8956   5.8959
    10.1818  10.1824  10.1852  10.1853  10.1853  10.1855  10.1881  10.1887
    11.1068  11.1076  11.1086  11.1090  11.1101  11.1115

          k =-0.5000-0.5000-0.5000 (  6008 PWs)   bands (ev):

   -34.5399 -34.5399 -34.5290 -34.5290 -34.5290 -34.5290 -34.5155 -34.5155
   -15.3384 -15.3384 -15.3288 -15.3288 -15.3287 -15.3287 -15.3169 -15.3169
   -11.2718 -11.2718 -11.2712 -11.2712 -11.2647 -11.2647 -11.2640 -11.2640
   -10.8587 -10.8587 -10.8584 -10.8584 -10.8500 -10.8500 -10.8498 -10.8498
     3.6580   3.6580   3.6683   3.6683   3.6687   3.6687   3.6785   3.6785
     6.1908   6.1908   6.2003   6.2003   6.2007   6.2007   6.2112   6.2112
    10.6566  10.6566  10.6577  10.6577  10.6583  10.6583  10.6595  10.6595
    10.8432  10.8432  10.8442  10.8443  10.8450  10.8450

          k = 0.2500 0.0000 0.0000 (  6023 PWs)   bands (ev):

   -34.5658 -34.5658 -34.5271 -34.5271 -34.5142 -34.5142 -34.5068 -34.5068
   -15.3770 -15.3770 -15.3760 -15.3760 -15.3423 -15.3422 -15.1832 -15.1831
   -11.2850 -11.2845 -11.2842 -11.2842 -11.2412 -11.2410 -11.0367 -11.0367
   -11.0361 -11.0356 -10.9655 -10.9655 -10.8574 -10.8572 -10.8023 -10.8023
     2.1998   2.2001   4.6933   4.6938   4.6942   4.6946   4.7774   4.7774
     4.9992   4.9996   5.8323   5.8334   5.8343   5.8352   7.0171   7.0175
     8.0640   8.0645   8.0649   8.0658   8.6525   8.6527  10.9087  10.9088
    11.0373  11.0401  12.3186  12.3212  12.3477  12.3477

          k =-0.5000 0.0000 0.0000 (  5942 PWs)   bands (ev):

   -34.5471 -34.5471 -34.5440 -34.5440 -34.5142 -34.5142 -34.5086 -34.5086
   -15.3751 -15.3751 -15.3749 -15.3749 -15.2649 -15.2649 -15.2628 -15.2628
   -11.2448 -11.2448 -11.2441 -11.2441 -11.0884 -11.0884 -11.0861 -11.0861
   -11.0591 -11.0591 -11.0550 -11.0550 -10.8853 -10.8853 -10.8840 -10.8840
     3.4155   3.4155   3.4169   3.4169   5.1313   5.1313   5.1332   5.1332
     5.3584   5.3584   5.3589   5.3589   5.6489   5.6489   5.6507   5.6507
     8.7076   8.7076   8.7083   8.7083  10.3992  10.3992  10.4001  10.4001
    11.5205  11.5206  11.5213  11.5214  11.7897  11.7901

          k = 0.0000 0.2500-0.2500 (  6016 PWs)   bands (ev):

   -34.5589 -34.5589 -34.5254 -34.5254 -34.5217 -34.5217 -34.5079 -34.5079
   -15.3733 -15.3730 -15.3492 -15.3491 -15.3462 -15.3462 -15.2124 -15.2122
   -11.2696 -11.2695 -11.2372 -11.2371 -11.2369 -11.2366 -11.0403 -11.0396
   -10.9925 -10.9922 -10.9921 -10.9918 -10.9485 -10.9482 -10.8130 -10.8129
     2.5908   2.5913   4.7475   4.7488   4.8860   4.8869   4.8951   4.8964
     5.0369   5.0389   5.0476   5.0497   5.6903   5.6906   6.5043   6.5047
     8.4516   8.4518   8.8216   8.8219   8.8339   8.8343  10.8962  10.8963
    11.1882  11.1903  12.3947  12.3950  12.5733  12.5737

          k = 0.2500 0.0000-0.2500 (  6016 PWs)   bands (ev):

   -34.5588 -34.5588 -34.5276 -34.5276 -34.5188 -34.5188 -34.5086 -34.5086
   -15.3724 -15.3722 -15.3534 -15.3533 -15.3428 -15.3426 -15.2125 -15.2123
   -11.2696 -11.2692 -11.2396 -11.2395 -11.2343 -11.2341 -11.0405 -11.0401
   -10.9950 -10.9949 -10.9893 -10.9887 -10.9488 -10.9486 -10.8130 -10.8130
     2.5924   2.5928   4.7506   4.7514   4.8869   4.8903   4.8924   4.8962
     5.0364   5.0399   5.0435   5.0471   5.6882   5.6902   6.5018   6.5023
     8.4505   8.4516   8.8226   8.8231   8.8296   8.8297  10.8981  10.8985
    11.1899  11.1911  12.3944  12.3945  12.5726  12.5775

          k =-0.2500 0.0000-0.2500 (  6016 PWs)   bands (ev):

   -34.5588 -34.5588 -34.5276 -34.5276 -34.5188 -34.5188 -34.5086 -34.5086
   -15.3723 -15.3721 -15.3535 -15.3533 -15.3428 -15.3428 -15.2124 -15.2123
   -11.2696 -11.2692 -11.2399 -11.2397 -11.2346 -11.2345 -11.0401 -11.0398
   -10.9952 -10.9946 -10.9890 -10.9889 -10.9486 -10.9484 -10.8128 -10.8128
     2.5894   2.5897   4.7447   4.7455   4.8867   4.8904   4.8921   4.8955
     5.0392   5.0425   5.0462   5.0497   5.6908   5.6927   6.5067   6.5072
     8.4519   8.4531   8.8262   8.8264   8.8327   8.8332  10.8937  10.8940
    11.1879  11.1890  12.3952  12.3954  12.5668  12.5707

          k = 0.2500 0.0000 0.5000 (  6018 PWs)   bands (ev):

   -34.5464 -34.5464 -34.5349 -34.5349 -34.5227 -34.5227 -34.5098 -34.5098
   -15.3654 -15.3653 -15.3549 -15.3548 -15.2871 -15.2870 -15.2760 -15.2759
   -11.2446 -11.2443 -11.2398 -11.2395 -11.1110 -11.1107 -11.1055 -11.1053
   -11.0352 -11.0350 -11.0297 -11.0294 -10.8956 -10.8955 -10.8897 -10.8895
     3.6348   3.6352   3.6472   3.6477   4.8737   4.8748   4.8811   4.8824
     5.3370   5.3388   5.3411   5.3432   5.5969   5.5976   5.6122   5.6129
     9.0524   9.0529   9.0547   9.0552  10.2311  10.2314  10.2413  10.2416
    11.8730  11.8736  11.8812  11.8817  11.9005  11.9015

          k =-0.5000-0.2500 0.0000 (  6018 PWs)   bands (ev):

   -34.5439 -34.5439 -34.5396 -34.5396 -34.5185 -34.5185 -34.5117 -34.5117
   -15.3607 -15.3606 -15.3602 -15.3602 -15.2825 -15.2824 -15.2799 -15.2799
   -11.2426 -11.2421 -11.2418 -11.2416 -11.1087 -11.1085 -11.1082 -11.1080
   -11.0328 -11.0327 -11.0317 -11.0312 -10.8930 -10.8930 -10.8924 -10.8920
     3.6384   3.6389   3.6436   3.6441   4.8734   4.8750   4.8810   4.8826
     5.3366   5.3385   5.3414   5.3433   5.6022   5.6029   5.6070   5.6076
     9.0524   9.0530   9.0546   9.0552  10.2327  10.2330  10.2397  10.2399
    11.8738  11.8744  11.8796  11.8813  11.8980  11.8997

          k =-0.5000 0.0000 0.5000 (  6024 PWs)   bands (ev):

   -34.5400 -34.5400 -34.5291 -34.5291 -34.5291 -34.5291 -34.5156 -34.5156
   -15.3324 -15.3324 -15.3228 -15.3228 -15.3227 -15.3227 -15.3108 -15.3108
   -11.1991 -11.1991 -11.1987 -11.1987 -11.1899 -11.1899 -11.1893 -11.1893
   -10.9494 -10.9494 -10.9491 -10.9491 -10.9390 -10.9390 -10.9388 -10.9388
     4.2063   4.2063   4.2174   4.2174   4.2177   4.2177   4.2281   4.2281
     5.4670   5.4670   5.4756   5.4756   5.4761   5.4761   5.4858   5.4858
     9.7997   9.7997   9.8021   9.8021   9.8049   9.8049   9.8071   9.8071
    11.8667  11.8667  11.8703  11.8704  11.8710  11.8710

          k =-0.2500 0.2500-0.2500 (  6007 PWs)   bands (ev):

   -34.5531 -34.5531 -34.5281 -34.5281 -34.5216 -34.5216 -34.5109 -34.5109
   -15.3571 -15.3570 -15.3501 -15.3500 -15.3421 -15.3420 -15.2373 -15.2372
   -11.2507 -11.2504 -11.2471 -11.2469 -11.2437 -11.2433 -11.0324 -11.0321
   -10.9869 -10.9864 -10.9828 -10.9823 -10.9787 -10.9783 -10.8113 -10.8113
     2.8864   2.8870   4.5341   4.5356   4.5427   4.5428   4.5498   4.5512
     5.4663   5.4670   5.4727   5.4727   5.4789   5.4796   6.2467   6.2474
     9.0658   9.0662   9.0716   9.0717   9.0771   9.0775  10.9422  10.9422
    11.1411  11.1418  12.0187  12.0195  12.0206  12.0214

          k = 0.2500-0.2500-0.2500 (  6007 PWs)   bands (ev):

   -34.5531 -34.5531 -34.5281 -34.5281 -34.5216 -34.5216 -34.5109 -34.5109
   -15.3570 -15.3570 -15.3501 -15.3501 -15.3420 -15.3419 -15.2373 -15.2373
   -11.2502 -11.2499 -11.2474 -11.2468 -11.2434 -11.2433 -11.0325 -11.0323
   -10.9866 -10.9865 -10.9828 -10.9825 -10.9790 -10.9787 -10.8114 -10.8114
     2.8903   2.8906   4.5396   4.5401   4.5429   4.5430   4.5492   4.5501
     5.4638   5.4648   5.4726   5.4726   5.4743   5.4748   6.2415   6.2419
     9.0651   9.0654   9.0720   9.0720   9.0732   9.0733  10.9438  10.9439
    11.1429  11.1434  12.0183  12.0189  12.0200  12.0202

          k =-0.2500 0.2500 0.5000 (  6004 PWs)   bands (ev):

   -34.5437 -34.5437 -34.5324 -34.5324 -34.5253 -34.5253 -34.5123 -34.5123
   -15.3562 -15.3562 -15.3458 -15.3456 -15.3005 -15.3005 -15.2895 -15.2893
   -11.2584 -11.2582 -11.2540 -11.2538 -11.1648 -11.1648 -11.1602 -11.1597
   -10.9772 -10.9770 -10.9722 -10.9717 -10.8777 -10.8774 -10.8721 -10.8720
     3.6708   3.6711   3.6822   3.6829   4.3871   4.3879   4.3944   4.3955
     5.6987   5.6996   5.7038   5.7043   5.7320   5.7327   5.7450   5.7459
     9.4191   9.4194   9.4217   9.4219  10.3599  10.3603  10.3676  10.3680
    11.2553  11.2561  11.2575  11.2585  11.5332  11.5346

          k =-0.5000-0.2500 0.2500 (  6004 PWs)   bands (ev):

   -34.5421 -34.5421 -34.5365 -34.5365 -34.5216 -34.5216 -34.5135 -34.5135
   -15.3520 -15.3520 -15.3511 -15.3510 -15.2961 -15.2960 -15.2929 -15.2929
   -11.2569 -11.2565 -11.2561 -11.2558 -11.1626 -11.1622 -11.1621 -11.1620
   -10.9752 -10.9748 -10.9742 -10.9740 -10.8750 -10.8750 -10.8745 -10.8740
     3.6729   3.6734   3.6743   3.6744   4.3861   4.3869   4.3988   4.3997
     5.6966   5.6974   5.7048   5.7055   5.7406   5.7413   5.7424   5.7435
     9.4183   9.4185   9.4230   9.4232  10.3630  10.3637  10.3639  10.3644
    11.2549  11.2562  11.2568  11.2579  11.5342  11.5350

          k = 0.5000-0.2500-0.2500 (  6004 PWs)   bands (ev):

   -34.5421 -34.5421 -34.5365 -34.5365 -34.5216 -34.5216 -34.5135 -34.5135
   -15.3520 -15.3520 -15.3510 -15.3510 -15.2960 -15.2960 -15.2929 -15.2929
   -11.2567 -11.2565 -11.2561 -11.2559 -11.1627 -11.1625 -11.1620 -11.1618
   -10.9749 -10.9749 -10.9742 -10.9742 -10.8750 -10.8750 -10.8743 -10.8743
     3.6679   3.6681   3.6792   3.6795   4.3926   4.3927   4.3934   4.3935
     5.6985   5.6995   5.7011   5.7022   5.7370   5.7371   5.7479   5.7480
     9.4203   9.4205   9.4210   9.4212  10.3601  10.3603  10.3670  10.3672
    11.2547  11.2548  11.2588  11.2589  11.5358  11.5360

          k =-0.5000 0.2500 0.5000 (  6000 PWs)   bands (ev):

   -34.5399 -34.5399 -34.5290 -34.5290 -34.5290 -34.5290 -34.5155 -34.5155
   -15.3354 -15.3354 -15.3258 -15.3258 -15.3257 -15.3257 -15.3138 -15.3138
   -11.2402 -11.2402 -11.2398 -11.2395 -11.2326 -11.2322 -11.2318 -11.2318
   -10.8991 -10.8988 -10.8987 -10.8987 -10.8898 -10.8898 -10.8897 -10.8894
     3.8835   3.8842   3.8943   3.8943   3.8946   3.8947   3.9041   3.9048
     5.8759   5.8764   5.8848   5.8849   5.8852   5.8853   5.8947   5.8953
    10.1813  10.1817  10.1840  10.1841  10.1864  10.1866  10.1887  10.1890
    11.1075  11.1078  11.1088  11.1091  11.1102  11.1109

     the Fermi energy is     9.4735 ev

!    total energy              =   -2248.42538264 Ry
     Harris-Foulkes estimate   =   -2248.42538296 Ry
     estimated scf accuracy    <       0.00000075 Ry

     total all-electron energy =    -90252.768759 Ry

     The total energy is the sum of the following terms:

     one-electron contribution =     -47.14993298 Ry
     hartree contribution      =      44.09148176 Ry
     xc contribution           =    -257.25429112 Ry
     ewald contribution        =    -240.05108433 Ry
     one-center paw contrib.   =   -1748.05973211 Ry
     smearing contrib. (-TS)   =      -0.00182386 Ry

     convergence has been achieved in   6 iterations

     Writing output data file 2311.save
 
     init_run     :      2.59s CPU      4.33s WALL (       1 calls)
     electrons    :     34.62s CPU     41.74s WALL (       1 calls)

     Called by init_run:
     wfcinit      :      2.17s CPU      3.23s WALL (       1 calls)
     potinit      :      0.24s CPU      0.34s WALL (       1 calls)

     Called by electrons:
     c_bands      :     28.19s CPU     33.34s WALL (       6 calls)
     sum_band     :      4.46s CPU      5.11s WALL (       6 calls)
     v_of_rho     :      0.01s CPU      0.03s WALL (       7 calls)
     newd         :      0.59s CPU      0.67s WALL (       7 calls)
     PAW_pot      :      1.24s CPU      1.38s WALL (       7 calls)
     mix_rho      :      0.06s CPU      0.08s WALL (       6 calls)

     Called by c_bands:
     init_us_2    :      0.09s CPU      0.12s WALL (     312 calls)
     cegterg      :     27.06s CPU     32.05s WALL (     144 calls)

     Called by sum_band:
     sum_band:bec :      0.67s CPU      0.67s WALL (     144 calls)
     addusdens    :      0.15s CPU      0.18s WALL (       6 calls)

     Called by *egterg:
     h_psi        :     15.78s CPU     19.39s WALL (     660 calls)
     s_psi        :      1.07s CPU      1.17s WALL (     660 calls)
     g_psi        :      0.04s CPU      0.04s WALL (     492 calls)
     cdiaghg      :      6.54s CPU      7.96s WALL (     636 calls)

     Called by h_psi:
     h_psi:pot    :     15.68s CPU     19.28s WALL (     660 calls)
     h_psi:calbec :      1.24s CPU      1.54s WALL (     660 calls)
     vloc_psi     :     13.31s CPU     16.61s WALL (     660 calls)
     add_vuspsi   :      1.12s CPU      1.13s WALL (     660 calls)

     General routines
     calbec       :      1.52s CPU      1.84s WALL (     804 calls)
     fft          :      0.09s CPU      0.33s WALL (     129 calls)
     fftw         :     15.68s CPU     19.49s WALL (  125044 calls)
     davcio       :      0.00s CPU      0.00s WALL (      24 calls)
 
     Parallel routines
     fft_scatter  :     11.48s CPU     15.13s WALL (  125173 calls)
 
     PWSCF        :  0m38.19s CPU     2m 0.09s WALL

 
   This run was terminated on:  10:51:59  16Nov2022            

=------------------------------------------------------------------------------=
   JOB DONE.
=------------------------------------------------------------------------------=
Removing 2311 from /home/shaharpit/tmp
