
     Program PWSCF v.6.1 (svn rev. 13369) starts on 16Nov2022 at 10:49:59 

     This program is part of the open-source Quantum ESPRESSO suite
     for quantum simulation of materials; please cite
         "P. Giannozzi et al., J. Phys.:Condens. Matter 21 395502 (2009);
          URL http://www.quantum-espresso.org", 
     in publications or presentations arising from this work. More details at
     http://www.quantum-espresso.org/quote

     Parallel version (MPI), running on    32 processors
     R & G space division:  proc/nbgrp/npool/nimage =      32
     Reading input from ./fcc_100_0.9.in
Warning: card &IONS ignored
Warning: card 	ION_DYNAMICS='BFGS', ignored
Warning: card / ignored
Warning: card &CELL ignored
Warning: card / ignored

     Current dimensions of program PWSCF are:
     Max number of different atomic species (ntypx) = 10
     Max number of k-points (npk) =  40000
     Max angular momentum in pseudopotentials (lmaxx) =  3
               file Gd.rel-pbe-spdn-kjpaw_psl.1.0.0.UPF: wavefunction(s)  5P 5P renormalized
               file H.pbe-kjpaw_psl.0.1.UPF: wavefunction(s)  1S renormalized

     Subspace diagonalization in iterative solution of the eigenvalue problem:
     a serial algorithm will be used

 
     Parallelization info
     --------------------
     sticks:   dense  smooth     PW     G-vecs:    dense   smooth      PW
     Min          46      46     13                 1354     1354     213
     Max          47      47     14                 1359     1359     216
     Sum        1481    1481    437                43387    43387    6859
 


     bravais-lattice index     =            0
     lattice parameter (alat)  =       9.6754  a.u.
     unit-cell volume          =     905.7461 (a.u.)^3
     number of atoms/cell      =           12
     number of atomic types    =            2
     number of electrons       =        52.00
     number of Kohn-Sham states=           62
     kinetic-energy cutoff     =      50.0000  Ry
     charge density cutoff     =     200.0000  Ry
     convergence threshold     =      1.0E-06
     mixing beta               =       0.7000
     number of iterations used =            8  plain     mixing
     Exchange-correlation      =  SLA  PW   PBX  PBC ( 1  4  3  4 0 0)
     Non magnetic calculation with spin-orbit


     celldm(1)=   9.675398  celldm(2)=   0.000000  celldm(3)=   0.000000
     celldm(4)=   0.000000  celldm(5)=   0.000000  celldm(6)=   0.000000

     crystal axes: (cart. coord. in units of alat)
               a(1) = (   1.000000   0.000000   0.000000 )  
               a(2) = (   0.000000   1.000000   0.000000 )  
               a(3) = (   0.000000   0.000000   1.000000 )  

     reciprocal axes: (cart. coord. in units 2 pi/alat)
               b(1) = (  1.000000  0.000000  0.000000 )  
               b(2) = (  0.000000  1.000000  0.000000 )  
               b(3) = (  0.000000  0.000000  1.000000 )  


     PseudoPot. # 1 for Gd read from file:
     /home/shaharpit/MeamGdH/dft/qe_potentials/Gd.rel-pbe-spdn-kjpaw_psl.1.0.0.UPF
     MD5 check sum: cf50ec46d1536b4a0251694df1946a53
     Pseudo is Projector augmented-wave + core cor, Zval = 11.0
     Generated using "atomic" code by A. Dal Corso  v.6.2.2
     Shape of augmentation charge: PSQ
     Using radial grid of 1263 points, 10 beta functions with: 
                l(1) =   0
                l(2) =   0
                l(3) =   1
                l(4) =   1
                l(5) =   1
                l(6) =   1
                l(7) =   2
                l(8) =   2
                l(9) =   2
               l(10) =   2
     Q(r) pseudized with 0 coefficients 


     PseudoPot. # 2 for  H read from file:
     /home/shaharpit/MeamGdH/dft/qe_potentials/H.pbe-kjpaw_psl.0.1.UPF
     MD5 check sum: fbb168fef676c0aaadbafd73f5b1efa8
     Pseudo is Projector augmented-wave, Zval =  1.0
     Generated using "atomic" code by A. Dal Corso  v.5.0.2 svn rev. 9415
     Shape of augmentation charge: PSQ
     Using radial grid of  929 points,  2 beta functions with: 
                l(1) =   0
                l(2) =   0
     Q(r) pseudized with 0 coefficients 


     atomic species   valence    mass     pseudopotential
        Gd            11.00   157.25000     Gd( 1.00)
        H              1.00     1.00794      H( 1.00)

      2 Sym. Ops. (no inversion) found



   Cartesian axes

     site n.     atom                  positions (alat units)
         1           Gd  tau(   1) = (   0.0000000   0.0000000   0.0000000  )
         2           Gd  tau(   2) = (   0.0000000   0.5000000   0.5000000  )
         3           Gd  tau(   3) = (   0.5000000   0.0000000   0.5000000  )
         4           Gd  tau(   4) = (   0.5000000   0.5000000   0.0000000  )
         5           H   tau(   5) = (   0.2500000   0.7539000   0.7539000  )
         6           H   tau(   6) = (   0.2500000   0.7501000   0.2500000  )
         7           H   tau(   7) = (   0.2500000   0.2500000   0.2500000  )
         8           H   tau(   8) = (   0.2500000   0.2500000   0.7501000  )
         9           H   tau(   9) = (   0.7501000   0.2500000   0.7501000  )
        10           H   tau(  10) = (   0.7501000   0.2500000   0.2500000  )
        11           H   tau(  11) = (   0.7501000   0.7501000   0.2500000  )
        12           H   tau(  12) = (   0.7501000   0.7501000   0.7501000  )

     number of k points=    24  gaussian smearing, width (Ry)=  0.0100
                       cart. coord. in units 2pi/alat
        k(    1) = (   0.0000000   0.0000000   0.0000000), wk =   0.0156250
        k(    2) = (   0.0000000   0.0000000   0.2500000), wk =   0.0625000
        k(    3) = (   0.0000000   0.0000000  -0.5000000), wk =   0.0312500
        k(    4) = (   0.0000000   0.2500000   0.2500000), wk =   0.0312500
        k(    5) = (   0.0000000   0.2500000  -0.5000000), wk =   0.0625000
        k(    6) = (   0.0000000  -0.5000000  -0.5000000), wk =   0.0156250
        k(    7) = (   0.2500000   0.2500000   0.2500000), wk =   0.0312500
        k(    8) = (   0.2500000   0.2500000  -0.5000000), wk =   0.0625000
        k(    9) = (   0.2500000  -0.5000000  -0.5000000), wk =   0.0312500
        k(   10) = (  -0.5000000  -0.5000000  -0.5000000), wk =   0.0156250
        k(   11) = (   0.2500000   0.0000000   0.0000000), wk =   0.0312500
        k(   12) = (  -0.5000000   0.0000000   0.0000000), wk =   0.0156250
        k(   13) = (   0.0000000   0.2500000  -0.2500000), wk =   0.0312500
        k(   14) = (   0.2500000   0.0000000  -0.2500000), wk =   0.0625000
        k(   15) = (  -0.2500000   0.0000000  -0.2500000), wk =   0.0625000
        k(   16) = (   0.2500000   0.0000000   0.5000000), wk =   0.0625000
        k(   17) = (  -0.5000000  -0.2500000   0.0000000), wk =   0.0625000
        k(   18) = (  -0.5000000   0.0000000   0.5000000), wk =   0.0312500
        k(   19) = (  -0.2500000   0.2500000  -0.2500000), wk =   0.0625000
        k(   20) = (   0.2500000  -0.2500000  -0.2500000), wk =   0.0312500
        k(   21) = (  -0.2500000   0.2500000   0.5000000), wk =   0.0625000
        k(   22) = (  -0.5000000  -0.2500000   0.2500000), wk =   0.0312500
        k(   23) = (   0.5000000  -0.2500000  -0.2500000), wk =   0.0312500
        k(   24) = (  -0.5000000   0.2500000   0.5000000), wk =   0.0625000

     Dense  grid:    43387 G-vectors     FFT dimensions: (  45,  45,  45)

     Estimated max dynamical RAM per process >      15.66MB

     Estimated total allocated dynamical RAM >     501.11MB

     Initial potential from superposition of free atoms

     starting charge   51.92374, renormalised to   52.00000
     Starting wfc are  120 randomized atomic wfcs
     Checking if some PAW data can be deallocated... 

     total cpu time spent up to now is        4.9 secs

     per-process dynamical memory:    56.9 Mb

     Self-consistent Calculation

     iteration #  1     ecut=    50.00 Ry     beta=0.70
     Davidson diagonalization with overlap
     ethr =  1.00E-02,  avg # of iterations =  2.2

     total cpu time spent up to now is        8.3 secs

     total energy              =   -2248.30453611 Ry
     Harris-Foulkes estimate   =   -2248.63555489 Ry
     estimated scf accuracy    <       0.59581841 Ry

     iteration #  2     ecut=    50.00 Ry     beta=0.70
     Davidson diagonalization with overlap
     ethr =  1.15E-03,  avg # of iterations =  2.6

     total cpu time spent up to now is       11.9 secs

     total energy              =   -2248.40295059 Ry
     Harris-Foulkes estimate   =   -2248.40639032 Ry
     estimated scf accuracy    <       0.00598816 Ry

     iteration #  3     ecut=    50.00 Ry     beta=0.70
     Davidson diagonalization with overlap
     ethr =  1.15E-05,  avg # of iterations =  3.2

     total cpu time spent up to now is       16.5 secs

     total energy              =   -2248.40530171 Ry
     Harris-Foulkes estimate   =   -2248.40537977 Ry
     estimated scf accuracy    <       0.00030085 Ry

     iteration #  4     ecut=    50.00 Ry     beta=0.70
     Davidson diagonalization with overlap
     ethr =  5.79E-07,  avg # of iterations =  7.8

     total cpu time spent up to now is       22.8 secs

     total energy              =   -2248.40534427 Ry
     Harris-Foulkes estimate   =   -2248.40549548 Ry
     estimated scf accuracy    <       0.00036042 Ry

     iteration #  5     ecut=    50.00 Ry     beta=0.70
     Davidson diagonalization with overlap
     ethr =  5.79E-07,  avg # of iterations =  3.0

     total cpu time spent up to now is       26.5 secs

     total energy              =   -2248.40541134 Ry
     Harris-Foulkes estimate   =   -2248.40541231 Ry
     estimated scf accuracy    <       0.00000440 Ry

     iteration #  6     ecut=    50.00 Ry     beta=0.70
     Davidson diagonalization with overlap
     ethr =  8.45E-09,  avg # of iterations =  2.9

     total cpu time spent up to now is       30.8 secs

     End of self-consistent calculation

          k = 0.0000 0.0000 0.0000 (  5449 PWs)   bands (ev):

   -32.9960 -32.9960 -32.9053 -32.9053 -32.8980 -32.8980 -32.8884 -32.8884
   -13.8665 -13.8665 -13.8601 -13.8601 -13.8526 -13.8526 -13.5214 -13.5214
    -9.9082  -9.9082  -9.9056  -9.9056  -9.9033  -9.9033  -9.4618  -9.4618
    -9.4582  -9.4582  -9.4549  -9.4549  -9.1326  -9.1326  -9.1324  -9.1324
     2.6659   2.6659   5.3422   5.3422   5.3424   5.3424   5.3427   5.3427
     7.5628   7.5628   7.5656   7.5656   7.5677   7.5677   8.6235   8.6235
     8.6242   8.6242   8.6252   8.6252   9.3881   9.3881  11.9275  11.9275
    11.9292  11.9292  12.0900  12.0900  14.8646  14.8648

          k = 0.0000 0.0000 0.2500 (  5430 PWs)   bands (ev):

   -32.9819 -32.9819 -32.9137 -32.9137 -32.9020 -32.9020 -32.8901 -32.8901
   -13.8623 -13.8622 -13.8526 -13.8525 -13.8109 -13.8108 -13.5721 -13.5719
    -9.8722  -9.8718  -9.8676  -9.8671  -9.8085  -9.8083  -9.5171  -9.5166
    -9.5110  -9.5106  -9.4120  -9.4119  -9.2647  -9.2645  -9.1815  -9.1815
     3.1943   3.1946   5.6365   5.6369   5.6371   5.6377   5.6636   5.6637
     6.3228   6.3231   7.2091   7.2104   7.2120   7.2135   8.1108   8.1111
     9.0997   9.1008   9.1010   9.1021   9.7559   9.7560  12.2498  12.2498
    12.3847  12.3866  13.8119  13.8139  13.8208  13.8223

          k = 0.0000 0.0000-0.5000 (  5406 PWs)   bands (ev):

   -32.9530 -32.9530 -32.9415 -32.9415 -32.9027 -32.9027 -32.8906 -32.8906
   -13.8596 -13.8596 -13.8498 -13.8498 -13.6980 -13.6980 -13.6875 -13.6875
    -9.8207  -9.8207  -9.8130  -9.8130  -9.5910  -9.5910  -9.5821  -9.5821
    -9.5577  -9.5577  -9.5484  -9.5484  -9.3031  -9.3031  -9.2931  -9.2931
     4.5705   4.5705   4.5848   4.5848   6.2572   6.2572   6.2593   6.2593
     6.5320   6.5320   6.5358   6.5358   6.6040   6.6040   6.6232   6.6232
     9.8157   9.8157   9.8164   9.8164  11.6228  11.6228  11.6363  11.6363
    12.9975  12.9975  13.0029  13.0030  13.2518  13.2519

          k = 0.0000 0.2500 0.2500 (  5393 PWs)   bands (ev):

   -32.9700 -32.9700 -32.9132 -32.9132 -32.9102 -32.9102 -32.8943 -32.8943
   -13.8515 -13.8514 -13.8182 -13.8181 -13.8161 -13.8161 -13.6161 -13.6160
    -9.8512  -9.8512  -9.8044  -9.8039  -9.8035  -9.8031  -9.5187  -9.5186
    -9.4515  -9.4514  -9.4511  -9.4510  -9.3962  -9.3962  -9.1966  -9.1965
     3.6367   3.6367   5.7490   5.7490   5.8773   5.8776   5.8811   5.8813
     6.3043   6.3055   6.3093   6.3105   6.9998   7.0000   7.5708   7.5709
     9.5392   9.5394   9.9250   9.9251   9.9258   9.9258  12.2333  12.2333
    12.5409  12.5409  13.8833  13.8836  14.1466  14.1472

          k = 0.0000 0.2500-0.5000 (  5390 PWs)   bands (ev):

   -32.9460 -32.9460 -32.9345 -32.9345 -32.9096 -32.9096 -32.8974 -32.8974
   -13.8388 -13.8386 -13.8290 -13.8288 -13.7245 -13.7243 -13.7140 -13.7138
    -9.8159  -9.8155  -9.8119  -9.8113  -9.6260  -9.6254  -9.6208  -9.6203
    -9.5116  -9.5111  -9.5064  -9.5059  -9.3133  -9.3129  -9.3076  -9.3073
     4.7998   4.8005   4.8119   4.8126   6.0175   6.0193   6.0204   6.0222
     6.4884   6.4892   6.4915   6.4917   6.6061   6.6063   6.6214   6.6220
    10.1932  10.1934  10.1935  10.1938  11.4558  11.4562  11.4636  11.4641
    13.3538  13.3546  13.3579  13.3602  13.3615  13.3635

          k = 0.0000-0.5000-0.5000 (  5440 PWs)   bands (ev):

   -32.9332 -32.9332 -32.9224 -32.9224 -32.9224 -32.9224 -32.9095 -32.9095
   -13.7890 -13.7890 -13.7798 -13.7798 -13.7796 -13.7796 -13.7687 -13.7687
    -9.7465  -9.7465  -9.7456  -9.7456  -9.7452  -9.7452  -9.7445  -9.7445
    -9.3839  -9.3839  -9.3836  -9.3836  -9.3825  -9.3825  -9.3822  -9.3822
     5.3690   5.3690   5.3782   5.3782   5.3787   5.3787   5.3872   5.3872
     6.5586   6.5586   6.5680   6.5680   6.5683   6.5683   6.5787   6.5787
    11.0110  11.0110  11.0135  11.0135  11.0136  11.0136  11.0159  11.0159
    13.2942  13.2942  13.2976  13.2976  13.2982  13.2983

          k = 0.2500 0.2500 0.2500 (  5395 PWs)   bands (ev):

   -32.9600 -32.9600 -32.9171 -32.9171 -32.9101 -32.9101 -32.9002 -32.9002
   -13.8267 -13.8266 -13.8201 -13.8200 -13.8126 -13.8126 -13.6540 -13.6539
    -9.8211  -9.8209  -9.8178  -9.8169  -9.8156  -9.8151  -9.5135  -9.5133
    -9.4418  -9.4416  -9.4384  -9.4379  -9.4345  -9.4345  -9.1933  -9.1933
     3.9369   3.9373   5.5636   5.5646   5.5731   5.5731   5.5752   5.5755
     6.7231   6.7236   6.7247   6.7248   6.7357   6.7370   7.3537   7.3541
    10.1917  10.1918  10.1930  10.1931  10.1999  10.2002  12.2760  12.2760
    12.4763  12.4767  13.4910  13.4915  13.4920  13.4925

          k = 0.2500 0.2500-0.5000 (  5420 PWs)   bands (ev):

   -32.9412 -32.9412 -32.9298 -32.9298 -32.9143 -32.9143 -32.9020 -32.9020
   -13.8270 -13.8267 -13.8170 -13.8170 -13.7458 -13.7455 -13.7353 -13.7353
    -9.8327  -9.8323  -9.8289  -9.8285  -9.6996  -9.6988  -9.6948  -9.6946
    -9.4296  -9.4289  -9.4246  -9.4244  -9.2869  -9.2867  -9.2818  -9.2814
     4.7360   4.7369   4.7487   4.7490   5.4158   5.4170   5.4232   5.4240
     6.8916   6.8925   6.9056   6.9063   6.9808   6.9818   6.9845   6.9860
    10.5856  10.5860  10.5877  10.5882  11.5960  11.5963  11.6038  11.6043
    12.6214  12.6222  12.6240  12.6247  12.9444  12.9455

          k = 0.2500-0.5000-0.5000 (  5452 PWs)   bands (ev):

   -32.9331 -32.9331 -32.9223 -32.9223 -32.9223 -32.9223 -32.9094 -32.9094
   -13.7956 -13.7956 -13.7864 -13.7864 -13.7862 -13.7862 -13.7754 -13.7754
    -9.8023  -9.8023  -9.8016  -9.8012  -9.7971  -9.7968  -9.7959  -9.7959
    -9.3153  -9.3151  -9.3151  -9.3150  -9.3085  -9.3082  -9.3082  -9.3080
     4.8731   4.8732   4.8832   4.8832   4.8836   4.8836   4.8930   4.8932
     7.1885   7.1891   7.1979   7.1979   7.1982   7.1982   7.2079   7.2082
    11.4179  11.4185  11.4211  11.4212  11.4213  11.4214  11.4238  11.4244
    12.4375  12.4376  12.4394  12.4401  12.4413  12.4424

          k =-0.5000-0.5000-0.5000 (  5400 PWs)   bands (ev):

   -32.9330 -32.9330 -32.9222 -32.9222 -32.9222 -32.9222 -32.9093 -32.9093
   -13.8022 -13.8022 -13.7930 -13.7930 -13.7929 -13.7929 -13.7821 -13.7821
    -9.8437  -9.8437  -9.8425  -9.8425  -9.8376  -9.8376  -9.8363  -9.8363
    -9.2572  -9.2572  -9.2571  -9.2571  -9.2489  -9.2489  -9.2489  -9.2489
     4.5617   4.5617   4.5721   4.5721   4.5725   4.5725   4.5824   4.5824
     7.6428   7.6428   7.6517   7.6517   7.6520   7.6520   7.6618   7.6618
    11.9437  11.9438  11.9449  11.9451  11.9453  11.9456  11.9468  11.9471
    12.1316  12.1318  12.1329  12.1331  12.1341  12.1345

          k = 0.2500 0.0000 0.0000 (  5430 PWs)   bands (ev):

   -32.9818 -32.9818 -32.9155 -32.9155 -32.8979 -32.8979 -32.8924 -32.8924
   -13.8580 -13.8580 -13.8574 -13.8574 -13.8103 -13.8102 -13.5721 -13.5719
    -9.8703  -9.8698  -9.8694  -9.8692  -9.8085  -9.8083  -9.5144  -9.5142
    -9.5138  -9.5132  -9.4118  -9.4118  -9.2647  -9.2644  -9.1816  -9.1816
     3.1943   3.1947   5.6363   5.6369   5.6373   5.6379   5.6637   5.6638
     6.3227   6.3230   7.2092   7.2107   7.2119   7.2132   8.1107   8.1111
     9.0998   9.1005   9.1011   9.1024   9.7557   9.7558  12.2497  12.2497
    12.3841  12.3869  13.8146  13.8168  13.8186  13.8189

          k =-0.5000 0.0000 0.0000 (  5406 PWs)   bands (ev):

   -32.9487 -32.9487 -32.9470 -32.9470 -32.8979 -32.8979 -32.8941 -32.8941
   -13.8550 -13.8550 -13.8546 -13.8546 -13.6933 -13.6933 -13.6918 -13.6918
    -9.8171  -9.8171  -9.8167  -9.8167  -9.5880  -9.5880  -9.5862  -9.5862
    -9.5540  -9.5540  -9.5511  -9.5511  -9.2986  -9.2986  -9.2976  -9.2976
     4.5770   4.5770   4.5785   4.5785   6.2571   6.2571   6.2594   6.2594
     6.5340   6.5340   6.5347   6.5347   6.6121   6.6121   6.6141   6.6141
     9.8156   9.8156   9.8165   9.8165  11.6289  11.6289  11.6299  11.6299
    12.9997  12.9998  13.0005  13.0005  13.2527  13.2529

          k = 0.0000 0.2500-0.2500 (  5393 PWs)   bands (ev):

   -32.9700 -32.9700 -32.9132 -32.9132 -32.9102 -32.9102 -32.8943 -32.8943
   -13.8516 -13.8513 -13.8182 -13.8181 -13.8162 -13.8160 -13.6162 -13.6159
    -9.8513  -9.8511  -9.8042  -9.8038  -9.8036  -9.8032  -9.5192  -9.5182
    -9.4516  -9.4515  -9.4511  -9.4509  -9.3963  -9.3959  -9.1966  -9.1965
     3.6364   3.6370   5.7481   5.7497   5.8749   5.8753   5.8832   5.8837
     6.2997   6.3012   6.3134   6.3152   7.0000   7.0003   7.5707   7.5711
     9.5391   9.5394   9.9184   9.9188   9.9317   9.9323  12.2333  12.2333
    12.5396  12.5416  13.8830  13.8834  14.1466  14.1475

          k = 0.2500 0.0000-0.2500 (  5393 PWs)   bands (ev):

   -32.9699 -32.9699 -32.9162 -32.9162 -32.9062 -32.9062 -32.8954 -32.8954
   -13.8511 -13.8508 -13.8223 -13.8223 -13.8125 -13.8122 -13.6162 -13.6161
    -9.8515  -9.8509  -9.8058  -9.8057  -9.8013  -9.8010  -9.5192  -9.5186
    -9.4541  -9.4539  -9.4489  -9.4480  -9.3968  -9.3965  -9.1966  -9.1965
     3.6384   3.6389   5.7517   5.7527   5.8772   5.8789   5.8821   5.8844
     6.2988   6.3014   6.3080   6.3103   6.9974   6.9999   7.5679   7.5685
     9.5375   9.5390   9.9195   9.9202   9.9271   9.9272  12.2354  12.2359
    12.5414  12.5426  13.8826  13.8828  14.1477  14.1499

          k =-0.2500 0.0000-0.2500 (  5393 PWs)   bands (ev):

   -32.9699 -32.9699 -32.9162 -32.9162 -32.9062 -32.9062 -32.8954 -32.8954
   -13.8510 -13.8507 -13.8226 -13.8223 -13.8125 -13.8125 -13.6161 -13.6159
    -9.8514  -9.8507  -9.8065  -9.8061  -9.8018  -9.8017  -9.5188  -9.5184
    -9.4543  -9.4534  -9.4483  -9.4482  -9.3963  -9.3960  -9.1966  -9.1965
     3.6345   3.6350   5.7447   5.7456   5.8750   5.8771   5.8799   5.8815
     6.3043   6.3065   6.3131   6.3157   7.0004   7.0029   7.5733   7.5740
     9.5396   9.5411   9.9235   9.9237   9.9305   9.9311  12.2304  12.2308
    12.5392  12.5403  13.8837  13.8839  14.1406  14.1431

          k = 0.2500 0.0000 0.5000 (  5390 PWs)   bands (ev):

   -32.9460 -32.9460 -32.9345 -32.9345 -32.9096 -32.9096 -32.8974 -32.8974
   -13.8388 -13.8386 -13.8290 -13.8288 -13.7245 -13.7243 -13.7140 -13.7138
    -9.8160  -9.8156  -9.8119  -9.8114  -9.6257  -9.6253  -9.6205  -9.6202
    -9.5118  -9.5113  -9.5066  -9.5062  -9.3132  -9.3129  -9.3075  -9.3072
     4.7991   4.7997   4.8127   4.8133   6.0146   6.0162   6.0231   6.0249
     6.4867   6.4892   6.4916   6.4942   6.6054   6.6062   6.6217   6.6225
    10.1921  10.1928  10.1941  10.1947  11.4544  11.4547  11.4651  11.4654
    13.3535  13.3547  13.3601  13.3618  13.3629  13.3648

          k =-0.5000-0.2500 0.0000 (  5390 PWs)   bands (ev):

   -32.9424 -32.9424 -32.9398 -32.9398 -32.9050 -32.9050 -32.9003 -32.9003
   -13.8343 -13.8341 -13.8339 -13.8337 -13.7199 -13.7198 -13.7181 -13.7180
    -9.8145  -9.8139  -9.8134  -9.8130  -9.6237  -9.6233  -9.6228  -9.6225
    -9.5095  -9.5092  -9.5087  -9.5080  -9.3106  -9.3105  -9.3102  -9.3096
     4.8027   4.8033   4.8091   4.8098   6.0142   6.0162   6.0231   6.0253
     6.4864   6.4888   6.4920   6.4945   6.6108   6.6117   6.6162   6.6169
    10.1921  10.1929  10.1941  10.1948  11.4561  11.4563  11.4634  11.4636
    13.3530  13.3556  13.3587  13.3595  13.3631  13.3671

          k =-0.5000 0.0000 0.5000 (  5440 PWs)   bands (ev):

   -32.9332 -32.9332 -32.9224 -32.9224 -32.9224 -32.9224 -32.9095 -32.9095
   -13.7890 -13.7890 -13.7798 -13.7798 -13.7796 -13.7796 -13.7687 -13.7687
    -9.7501  -9.7501  -9.7490  -9.7490  -9.7419  -9.7419  -9.7407  -9.7407
    -9.3881  -9.3881  -9.3879  -9.3879  -9.3784  -9.3784  -9.3781  -9.3781
     5.3657   5.3657   5.3782   5.3782   5.3784   5.3784   5.3903   5.3903
     6.5590   6.5590   6.5680   6.5680   6.5684   6.5684   6.5786   6.5786
    11.0097  11.0097  11.0122  11.0122  11.0148  11.0148  11.0171  11.0171
    13.2945  13.2945  13.2976  13.2976  13.2985  13.2985

          k =-0.2500 0.2500-0.2500 (  5395 PWs)   bands (ev):

   -32.9600 -32.9600 -32.9171 -32.9171 -32.9101 -32.9101 -32.9002 -32.9002
   -13.8267 -13.8265 -13.8201 -13.8200 -13.8126 -13.8124 -13.6542 -13.6540
    -9.8210  -9.8205  -9.8177  -9.8175  -9.8148  -9.8143  -9.5140  -9.5136
    -9.4425  -9.4418  -9.4386  -9.4379  -9.4348  -9.4342  -9.1934  -9.1934
     3.9414   3.9421   5.5646   5.5662   5.5731   5.5732   5.5800   5.5817
     6.7182   6.7190   6.7246   6.7247   6.7306   6.7315   7.3470   7.3478
    10.1870  10.1875  10.1932  10.1933  10.1988  10.1994  12.2777  12.2777
    12.4778  12.4786  13.4890  13.4892  13.4904  13.4916

          k = 0.2500-0.2500-0.2500 (  5395 PWs)   bands (ev):

   -32.9600 -32.9600 -32.9171 -32.9171 -32.9101 -32.9101 -32.9003 -32.9003
   -13.8266 -13.8265 -13.8200 -13.8200 -13.8125 -13.8124 -13.6543 -13.6541
    -9.8201  -9.8197  -9.8183  -9.8175  -9.8143  -9.8141  -9.5144  -9.5141
    -9.4421  -9.4421  -9.4387  -9.4381  -9.4353  -9.4349  -9.1934  -9.1934
     3.9462   3.9466   5.5709   5.5712   5.5733   5.5734   5.5821   5.5830
     6.7117   6.7130   6.7245   6.7246   6.7258   6.7262   7.3410   7.3415
    10.1862  10.1867  10.1936  10.1936  10.1947  10.1949  12.2795  12.2796
    12.4799  12.4804  13.4879  13.4882  13.4886  13.4893

          k =-0.2500 0.2500 0.5000 (  5420 PWs)   bands (ev):

   -32.9411 -32.9411 -32.9298 -32.9298 -32.9143 -32.9143 -32.9020 -32.9020
   -13.8267 -13.8267 -13.8170 -13.8167 -13.7458 -13.7458 -13.7356 -13.7352
    -9.8321  -9.8318  -9.8284  -9.8279  -9.6995  -9.6994  -9.6955  -9.6947
    -9.4296  -9.4293  -9.4251  -9.4243  -9.2872  -9.2868  -9.2818  -9.2816
     4.7438   4.7441   4.7560   4.7568   5.4131   5.4139   5.4201   5.4214
     6.8830   6.8838   6.8974   6.8982   6.9815   6.9825   6.9859   6.9867
    10.5853  10.5857  10.5875  10.5879  11.5964  11.5969  11.6045  11.6048
    12.6216  12.6224  12.6242  12.6250  12.9393  12.9407

          k =-0.5000-0.2500 0.2500 (  5420 PWs)   bands (ev):

   -32.9384 -32.9384 -32.9346 -32.9346 -32.9100 -32.9100 -32.9042 -32.9042
   -13.8226 -13.8224 -13.8220 -13.8218 -13.7414 -13.7412 -13.7392 -13.7391
    -9.8313  -9.8307  -9.8300  -9.8295  -9.6976  -9.6972  -9.6968  -9.6967
    -9.4277  -9.4272  -9.4268  -9.4264  -9.2846  -9.2845  -9.2843  -9.2836
     4.7455   4.7461   4.7470   4.7471   5.4114   5.4124   5.4244   5.4255
     6.8936   6.8947   6.8955   6.8967   6.9796   6.9805   6.9866   6.9874
    10.5845  10.5847  10.5887  10.5889  11.5997  11.6004  11.6006  11.6010
    12.6214  12.6227  12.6233  12.6244  12.9414  12.9436

          k = 0.5000-0.2500-0.2500 (  5420 PWs)   bands (ev):

   -32.9384 -32.9384 -32.9346 -32.9346 -32.9100 -32.9100 -32.9042 -32.9042
   -13.8225 -13.8224 -13.8220 -13.8218 -13.7413 -13.7413 -13.7392 -13.7392
    -9.8310  -9.8306  -9.8301  -9.8297  -9.6979  -9.6976  -9.6965  -9.6963
    -9.4274  -9.4273  -9.4267  -9.4267  -9.2845  -9.2845  -9.2839  -9.2839
     4.7399   4.7401   4.7526   4.7529   5.4180   5.4182   5.4191   5.4192
     6.8893   6.8894   6.9004   6.9004   6.9814   6.9830   6.9842   6.9857
    10.5862  10.5864  10.5870  10.5872  11.5966  11.5968  11.6039  11.6040
    12.6208  12.6209  12.6256  12.6257  12.9426  12.9427

          k =-0.5000 0.2500 0.5000 (  5452 PWs)   bands (ev):

   -32.9331 -32.9331 -32.9223 -32.9223 -32.9223 -32.9223 -32.9094 -32.9094
   -13.7956 -13.7956 -13.7864 -13.7864 -13.7863 -13.7862 -13.7754 -13.7754
    -9.8031  -9.8031  -9.8022  -9.8018  -9.7966  -9.7961  -9.7951  -9.7951
    -9.3163  -9.3160  -9.3159  -9.3157  -9.3077  -9.3073  -9.3073  -9.3071
     4.8721   4.8730   4.8832   4.8832   4.8835   4.8836   4.8932   4.8940
     7.1894   7.1901   7.1978   7.1979   7.1982   7.1983   7.2069   7.2076
    11.4172  11.4175  11.4199  11.4200  11.4223  11.4225  11.4247  11.4250
    12.4381  12.4387  12.4396  12.4400  12.4409  12.4415

     the Fermi energy is    10.6395 ev

!    total energy              =   -2248.40541304 Ry
     Harris-Foulkes estimate   =   -2248.40541318 Ry
     estimated scf accuracy    <       0.00000062 Ry

     total all-electron energy =    -90252.748790 Ry

     The total energy is the sum of the following terms:

     one-electron contribution =     -34.84972464 Ry
     hartree contribution      =      40.90403913 Ry
     xc contribution           =    -257.74969690 Ry
     ewald contribution        =    -248.63103520 Ry
     one-center paw contrib.   =   -1748.07717467 Ry
     smearing contrib. (-TS)   =      -0.00182076 Ry

     convergence has been achieved in   6 iterations

     Writing output data file 2310.save
 
     init_run     :      2.03s CPU      3.12s WALL (       1 calls)
     electrons    :     24.70s CPU     26.05s WALL (       1 calls)

     Called by init_run:
     wfcinit      :      1.76s CPU      2.14s WALL (       1 calls)
     potinit      :      0.12s CPU      0.25s WALL (       1 calls)

     Called by electrons:
     c_bands      :     20.65s CPU     21.55s WALL (       6 calls)
     sum_band     :      2.83s CPU      3.02s WALL (       6 calls)
     v_of_rho     :      0.02s CPU      0.04s WALL (       7 calls)
     newd         :      0.48s CPU      0.58s WALL (       7 calls)
     PAW_pot      :      0.81s CPU      0.92s WALL (       7 calls)
     mix_rho      :      0.05s CPU      0.06s WALL (       6 calls)

     Called by c_bands:
     init_us_2    :      0.12s CPU      0.13s WALL (     312 calls)
     cegterg      :     19.74s CPU     20.57s WALL (     144 calls)

     Called by sum_band:
     sum_band:bec :      0.71s CPU      0.71s WALL (     144 calls)
     addusdens    :      0.13s CPU      0.18s WALL (       6 calls)

     Called by *egterg:
     h_psi        :     11.96s CPU     12.71s WALL (     685 calls)
     s_psi        :      1.01s CPU      1.02s WALL (     685 calls)
     g_psi        :      0.02s CPU      0.02s WALL (     517 calls)
     cdiaghg      :      5.23s CPU      5.52s WALL (     661 calls)

     Called by h_psi:
     h_psi:pot    :     11.80s CPU     12.55s WALL (     685 calls)
     h_psi:calbec :      0.73s CPU      0.88s WALL (     685 calls)
     vloc_psi     :     10.05s CPU     10.63s WALL (     685 calls)
     add_vuspsi   :      1.00s CPU      1.03s WALL (     685 calls)

     General routines
     calbec       :      0.90s CPU      1.07s WALL (     829 calls)
     fft          :      0.02s CPU      0.30s WALL (     129 calls)
     fftw         :     10.78s CPU     11.41s WALL (  125872 calls)
     davcio       :      0.00s CPU      0.00s WALL (      24 calls)
 
     Parallel routines
     fft_scatter  :      4.90s CPU      5.20s WALL (  126001 calls)
 
     PWSCF        :  0m27.55s CPU     1m34.79s WALL

 
   This run was terminated on:  10:51:34  16Nov2022            

=------------------------------------------------------------------------------=
   JOB DONE.
=------------------------------------------------------------------------------=
Removing 2310 from /home/shaharpit/tmp
