
     Program PWSCF v.6.1 (svn rev. 13369) starts on 16Nov2022 at 10:59:19 

     This program is part of the open-source Quantum ESPRESSO suite
     for quantum simulation of materials; please cite
         "P. Giannozzi et al., J. Phys.:Condens. Matter 21 395502 (2009);
          URL http://www.quantum-espresso.org", 
     in publications or presentations arising from this work. More details at
     http://www.quantum-espresso.org/quote

     Parallel version (MPI), running on    32 processors
     R & G space division:  proc/nbgrp/npool/nimage =      32
     Reading input from ./hcp_50_1.1.in
Warning: card &IONS ignored
Warning: card 	ION_DYNAMICS='BFGS', ignored
Warning: card / ignored
Warning: card &CELL ignored
Warning: card / ignored

     Current dimensions of program PWSCF are:
     Max number of different atomic species (ntypx) = 10
     Max number of k-points (npk) =  40000
     Max angular momentum in pseudopotentials (lmaxx) =  3
               file Gd.rel-pbe-spdn-kjpaw_psl.1.0.0.UPF: wavefunction(s)  5P 5P renormalized
               file H.pbe-kjpaw_psl.0.1.UPF: wavefunction(s)  1S renormalized

     Subspace diagonalization in iterative solution of the eigenvalue problem:
     a serial algorithm will be used

 
     Parallelization info
     --------------------
     sticks:   dense  smooth     PW     G-vecs:    dense   smooth      PW
     Min          42      42     13                 1444     1444     243
     Max          43      43     14                 1451     1451     247
     Sum        1357    1357    423                46279    46279    7837
 


     bravais-lattice index     =            0
     lattice parameter (alat)  =      14.0996  a.u.
     unit-cell volume          =     968.9289 (a.u.)^3
     number of atoms/cell      =            8
     number of atomic types    =            2
     number of electrons       =        48.00
     number of Kohn-Sham states=           58
     kinetic-energy cutoff     =      50.0000  Ry
     charge density cutoff     =     200.0000  Ry
     convergence threshold     =      1.0E-06
     mixing beta               =       0.7000
     number of iterations used =            8  plain     mixing
     Exchange-correlation      =  SLA  PW   PBX  PBC ( 1  4  3  4 0 0)
     Non magnetic calculation with spin-orbit


     celldm(1)=  14.099625  celldm(2)=   0.000000  celldm(3)=   0.000000
     celldm(4)=   0.000000  celldm(5)=   0.000000  celldm(6)=   0.000000

     crystal axes: (cart. coord. in units of alat)
               a(1) = (   1.000000   0.000000   0.000000 )  
               a(2) = (  -0.250000   0.433013   0.000000 )  
               a(3) = (   0.000000   0.000000   0.798303 )  

     reciprocal axes: (cart. coord. in units 2 pi/alat)
               b(1) = (  1.000000  0.577349  0.000000 )  
               b(2) = (  0.000000  2.309397  0.000000 )  
               b(3) = (  0.000000  0.000000  1.252657 )  


     PseudoPot. # 1 for Gd read from file:
     /home/shaharpit/MeamGdH/dft/qe_potentials/Gd.rel-pbe-spdn-kjpaw_psl.1.0.0.UPF
     MD5 check sum: cf50ec46d1536b4a0251694df1946a53
     Pseudo is Projector augmented-wave + core cor, Zval = 11.0
     Generated using "atomic" code by A. Dal Corso  v.6.2.2
     Shape of augmentation charge: PSQ
     Using radial grid of 1263 points, 10 beta functions with: 
                l(1) =   0
                l(2) =   0
                l(3) =   1
                l(4) =   1
                l(5) =   1
                l(6) =   1
                l(7) =   2
                l(8) =   2
                l(9) =   2
               l(10) =   2
     Q(r) pseudized with 0 coefficients 


     PseudoPot. # 2 for  H read from file:
     /home/shaharpit/MeamGdH/dft/qe_potentials/H.pbe-kjpaw_psl.0.1.UPF
     MD5 check sum: fbb168fef676c0aaadbafd73f5b1efa8
     Pseudo is Projector augmented-wave, Zval =  1.0
     Generated using "atomic" code by A. Dal Corso  v.5.0.2 svn rev. 9415
     Shape of augmentation charge: PSQ
     Using radial grid of  929 points,  2 beta functions with: 
                l(1) =   0
                l(2) =   0
     Q(r) pseudized with 0 coefficients 


     atomic species   valence    mass     pseudopotential
        Gd            11.00   157.25000     Gd( 1.00)
        H              1.00     1.00794      H( 1.00)

     No symmetry found



   Cartesian axes

     site n.     atom                  positions (alat units)
         1           Gd  tau(   1) = (   0.2499750   0.1443234   0.5987274  )
         2           Gd  tau(   2) = (   0.7499750   0.1443234   0.5987274  )
         3           Gd  tau(   3) = (   0.0000250   0.2886901   0.1995758  )
         4           Gd  tau(   4) = (   0.5000250   0.2886901   0.1995758  )
         5           H   tau(   5) = (   0.2603500   0.1351868   0.7733962  )
         6           H   tau(   6) = (   0.7141750   0.1153981   0.7679677  )
         7           H   tau(   7) = (   0.7241000   0.3952547   0.4070548  )
         8           H   tau(   8) = (   0.2676250   0.4208458   0.3987525  )

     number of k points=    36  gaussian smearing, width (Ry)=  0.0100
                       cart. coord. in units 2pi/alat
        k(    1) = (   0.0000000   0.0000000   0.0000000), wk =   0.0156250
        k(    2) = (   0.0000000   0.0000000   0.3131642), wk =   0.0312500
        k(    3) = (   0.0000000   0.0000000  -0.6263284), wk =   0.0156250
        k(    4) = (   0.0000000   0.5773493   0.0000000), wk =   0.0312500
        k(    5) = (   0.0000000   0.5773493   0.3131642), wk =   0.0312500
        k(    6) = (   0.0000000   0.5773493  -0.6263284), wk =   0.0312500
        k(    7) = (   0.0000000  -1.1546985   0.0000000), wk =   0.0156250
        k(    8) = (   0.0000000  -1.1546985   0.3131642), wk =   0.0312500
        k(    9) = (   0.0000000  -1.1546985  -0.6263284), wk =   0.0156250
        k(   10) = (   0.2500000   0.1443373   0.0000000), wk =   0.0312500
        k(   11) = (   0.2500000   0.1443373   0.3131642), wk =   0.0312500
        k(   12) = (   0.2500000   0.1443373  -0.6263284), wk =   0.0312500
        k(   13) = (   0.2500000   0.7216866   0.0000000), wk =   0.0312500
        k(   14) = (   0.2500000   0.7216866   0.3131642), wk =   0.0312500
        k(   15) = (   0.2500000   0.7216866  -0.6263284), wk =   0.0312500
        k(   16) = (   0.2500000  -1.0103612   0.0000000), wk =   0.0312500
        k(   17) = (   0.2500000  -1.0103612   0.3131642), wk =   0.0312500
        k(   18) = (   0.2500000  -1.0103612  -0.6263284), wk =   0.0312500
        k(   19) = (   0.2500000  -0.4330119   0.0000000), wk =   0.0312500
        k(   20) = (   0.2500000  -0.4330119   0.3131642), wk =   0.0312500
        k(   21) = (   0.2500000  -0.4330119  -0.6263284), wk =   0.0312500
        k(   22) = (  -0.5000000  -0.2886746   0.0000000), wk =   0.0156250
        k(   23) = (  -0.5000000  -0.2886746   0.3131642), wk =   0.0312500
        k(   24) = (  -0.5000000  -0.2886746  -0.6263284), wk =   0.0156250
        k(   25) = (  -0.5000000   0.2886746   0.0000000), wk =   0.0312500
        k(   26) = (  -0.5000000   0.2886746   0.3131642), wk =   0.0312500
        k(   27) = (  -0.5000000   0.2886746  -0.6263284), wk =   0.0312500
        k(   28) = (  -0.5000000  -1.4433732   0.0000000), wk =   0.0156250
        k(   29) = (  -0.5000000  -1.4433732   0.3131642), wk =   0.0312500
        k(   30) = (  -0.5000000  -1.4433732  -0.6263284), wk =   0.0156250
        k(   31) = (   0.0000000  -0.5773493   0.3131642), wk =   0.0312500
        k(   32) = (  -0.2500000  -0.1443373   0.3131642), wk =   0.0312500
        k(   33) = (  -0.2500000  -0.7216866   0.3131642), wk =   0.0312500
        k(   34) = (  -0.2500000   1.0103612   0.3131642), wk =   0.0312500
        k(   35) = (  -0.2500000   0.4330119   0.3131642), wk =   0.0312500
        k(   36) = (   0.5000000  -0.2886746   0.3131642), wk =   0.0312500

     Dense  grid:    46279 G-vectors     FFT dimensions: (  64,  32,  54)

     Estimated max dynamical RAM per process >      19.31MB

     Estimated total allocated dynamical RAM >     617.77MB

     Initial potential from superposition of free atoms

     starting charge   47.92377, renormalised to   48.00000
     Starting wfc are  112 randomized atomic wfcs
     Checking if some PAW data can be deallocated... 

     total cpu time spent up to now is        5.1 secs

     per-process dynamical memory:    68.9 Mb

     Self-consistent Calculation

     iteration #  1     ecut=    50.00 Ry     beta=0.70
     Davidson diagonalization with overlap
     ethr =  1.00E-02,  avg # of iterations =  2.0

     total cpu time spent up to now is        9.6 secs

     total energy              =   -2242.30996465 Ry
     Harris-Foulkes estimate   =   -2242.81304405 Ry
     estimated scf accuracy    <       0.72856153 Ry

     iteration #  2     ecut=    50.00 Ry     beta=0.70
     Davidson diagonalization with overlap
     ethr =  1.52E-03,  avg # of iterations =  4.7

     total cpu time spent up to now is       15.7 secs

     total energy              =   -2241.94037030 Ry
     Harris-Foulkes estimate   =   -2243.12116915 Ry
     estimated scf accuracy    <       3.64812439 Ry

     iteration #  3     ecut=    50.00 Ry     beta=0.70
     Davidson diagonalization with overlap
     ethr =  1.52E-03,  avg # of iterations =  4.2

     total cpu time spent up to now is       21.2 secs

     total energy              =   -2242.55115140 Ry
     Harris-Foulkes estimate   =   -2242.66334514 Ry
     estimated scf accuracy    <       0.38829081 Ry

     iteration #  4     ecut=    50.00 Ry     beta=0.70
     Davidson diagonalization with overlap
     ethr =  8.09E-04,  avg # of iterations =  3.1

     total cpu time spent up to now is       25.6 secs

     total energy              =   -2242.58080227 Ry
     Harris-Foulkes estimate   =   -2242.62485552 Ry
     estimated scf accuracy    <       0.15477948 Ry

     iteration #  5     ecut=    50.00 Ry     beta=0.70
     Davidson diagonalization with overlap
     ethr =  3.22E-04,  avg # of iterations =  2.4

     total cpu time spent up to now is       29.6 secs

     total energy              =   -2242.60155115 Ry
     Harris-Foulkes estimate   =   -2242.60786972 Ry
     estimated scf accuracy    <       0.02328951 Ry

     iteration #  6     ecut=    50.00 Ry     beta=0.70
     Davidson diagonalization with overlap
     ethr =  4.85E-05,  avg # of iterations =  4.6

     total cpu time spent up to now is       34.7 secs

     total energy              =   -2242.60445652 Ry
     Harris-Foulkes estimate   =   -2242.60514686 Ry
     estimated scf accuracy    <       0.00179752 Ry

     iteration #  7     ecut=    50.00 Ry     beta=0.70
     Davidson diagonalization with overlap
     c_bands:  1 eigenvalues not converged
     ethr =  3.74E-06,  avg # of iterations =  7.5

     total cpu time spent up to now is       41.7 secs

     total energy              =   -2242.60484409 Ry
     Harris-Foulkes estimate   =   -2242.60489350 Ry
     estimated scf accuracy    <       0.00015538 Ry

     iteration #  8     ecut=    50.00 Ry     beta=0.70
     Davidson diagonalization with overlap
     ethr =  3.24E-07,  avg # of iterations =  3.4

     total cpu time spent up to now is       46.2 secs

     total energy              =   -2242.60486805 Ry
     Harris-Foulkes estimate   =   -2242.60487748 Ry
     estimated scf accuracy    <       0.00002266 Ry

     iteration #  9     ecut=    50.00 Ry     beta=0.70
     Davidson diagonalization with overlap
     ethr =  4.72E-08,  avg # of iterations =  3.3

     total cpu time spent up to now is       51.0 secs

     total energy              =   -2242.60486965 Ry
     Harris-Foulkes estimate   =   -2242.60487842 Ry
     estimated scf accuracy    <       0.00002490 Ry

     iteration # 10     ecut=    50.00 Ry     beta=0.70
     Davidson diagonalization with overlap
     ethr =  4.72E-08,  avg # of iterations =  2.7

     total cpu time spent up to now is       55.2 secs

     total energy              =   -2242.60487374 Ry
     Harris-Foulkes estimate   =   -2242.60487454 Ry
     estimated scf accuracy    <       0.00000212 Ry

     iteration # 11     ecut=    50.00 Ry     beta=0.70
     Davidson diagonalization with overlap
     ethr =  4.41E-09,  avg # of iterations =  3.0

     total cpu time spent up to now is       59.5 secs

     End of self-consistent calculation

          k = 0.0000 0.0000 0.0000 (  5761 PWs)   bands (ev):

   -34.9202 -34.9202 -34.7158 -34.7158 -34.2835 -34.2835 -34.1340 -34.1340
   -15.6523 -15.6523 -15.4679 -15.4679 -15.3229 -15.3229 -15.1484 -15.1484
   -11.6104 -11.6104 -11.4868 -11.4868 -11.4215 -11.4215 -11.2183 -11.2183
   -11.0218 -11.0218 -10.9968 -10.9968 -10.5897 -10.5897 -10.2889 -10.2889
     3.0835   3.0835   4.9871   4.9871   5.7038   5.7038   6.3582   6.3582
     7.9835   7.9835   8.5909   8.5909   8.7203   8.7203   9.7431   9.7431
    10.2285  10.2285  10.7379  10.7379  10.9474  10.9474  11.0576  11.0576
    11.2375  11.2375

          k = 0.0000 0.0000 0.3132 (  5777 PWs)   bands (ev):

   -34.9198 -34.9198 -34.7154 -34.7154 -34.2840 -34.2840 -34.1344 -34.1344
   -15.6499 -15.6433 -15.4516 -15.4489 -15.3309 -15.3288 -15.1676 -15.1640
   -11.5989 -11.5830 -11.4839 -11.4560 -11.4013 -11.3964 -11.2474 -11.2137
   -11.0689 -11.0544 -11.0188 -11.0107 -10.5938 -10.5756 -10.2913 -10.2908
     3.4367   3.4404   4.7339   4.7563   5.8649   5.8953   6.2809   6.3119
     7.6251   7.6273   8.1506   8.1823   9.0654   9.0947   9.8545   9.8680
    10.0063  10.0491  10.8205  10.8426  10.9148  10.9538  11.0360  11.0503
    11.1321  11.1650

          k = 0.0000 0.0000-0.6263 (  5758 PWs)   bands (ev):

   -34.9195 -34.9195 -34.7150 -34.7150 -34.2845 -34.2845 -34.1347 -34.1347
   -15.6415 -15.6415 -15.4264 -15.4264 -15.3405 -15.3405 -15.1851 -15.1851
   -11.5849 -11.5849 -11.4149 -11.4149 -11.3729 -11.3729 -11.2608 -11.2608
   -11.1314 -11.1314 -11.0133 -11.0133 -10.5792 -10.5792 -10.2932 -10.2932
     4.0072   4.0072   4.5912   4.5912   5.3530   5.3530   6.5915   6.5915
     7.3710   7.3710   7.9147   7.9147   9.4075   9.4075   9.7617   9.7617
     9.9792   9.9792  10.7568  10.7568  10.8602  10.8602  10.9764  10.9764
    11.2986  11.2986

          k = 0.0000 0.5773 0.0000 (  5800 PWs)   bands (ev):

   -34.9121 -34.9121 -34.7091 -34.7091 -34.2759 -34.2758 -34.1282 -34.1281
   -15.6648 -15.6609 -15.4858 -15.4786 -15.3364 -15.3322 -15.1890 -15.1886
   -11.6212 -11.5942 -11.5010 -11.4699 -11.3957 -11.3867 -11.2938 -11.2843
   -11.1666 -11.1408 -11.0689 -11.0533 -10.6256 -10.6219 -10.4340 -10.4312
     3.9506   4.0269   4.8710   4.9258   5.8494   5.9055   6.1562   6.2893
     8.4019   8.4130   8.7273   8.7927   9.1265   9.2165   9.4766   9.5057
    10.1226  10.1833  10.4298  10.4458  10.5435  10.6017  10.9952  11.0692
    11.1115  11.1530

          k = 0.0000 0.5773 0.3132 (  5776 PWs)   bands (ev):

   -34.9119 -34.9119 -34.7088 -34.7088 -34.2761 -34.2760 -34.1284 -34.1283
   -15.6616 -15.6581 -15.4774 -15.4698 -15.3450 -15.3378 -15.1978 -15.1955
   -11.6189 -11.5780 -11.4966 -11.4501 -11.3952 -11.3539 -11.3169 -11.3083
   -11.1598 -11.1502 -11.0951 -11.0665 -10.6269 -10.6034 -10.4345 -10.4263
     4.1795   4.2390   4.8468   4.9063   5.7861   5.8370   6.1265   6.2183
     8.2965   8.3428   8.7080   8.7478   9.2717   9.3514   9.4947   9.5222
     9.9005   9.9599  10.0037  10.0307  10.3799  10.4482  11.0469  11.0640
    11.1241  11.1693

          k = 0.0000 0.5773-0.6263 (  5782 PWs)   bands (ev):

   -34.9117 -34.9117 -34.7086 -34.7086 -34.2764 -34.2763 -34.1286 -34.1285
   -15.6586 -15.6541 -15.4641 -15.4613 -15.3520 -15.3478 -15.2085 -15.2028
   -11.6272 -11.5483 -11.4553 -11.4379 -11.3850 -11.3732 -11.3472 -11.2983
   -11.1747 -11.1648 -11.1045 -11.0899 -10.6268 -10.5905 -10.4274 -10.4224
     4.4296   4.4572   4.8226   4.8833   5.6781   5.7050   6.1621   6.2474
     8.1070   8.1800   8.8264   8.8636   9.2045   9.2507   9.5003   9.5078
     9.9531  10.0068  10.0350  10.1319  10.2584  10.2660  10.4981  10.5279
    11.4739  11.5320

          k = 0.0000-1.1547 0.0000 (  5796 PWs)   bands (ev):

   -34.9045 -34.9045 -34.7018 -34.7018 -34.2687 -34.2687 -34.1216 -34.1216
   -15.6785 -15.6785 -15.4975 -15.4975 -15.3562 -15.3562 -15.2215 -15.2215
   -11.5979 -11.5979 -11.4789 -11.4789 -11.4682 -11.4682 -11.3881 -11.3881
   -11.1904 -11.1904 -11.1044 -11.1044 -10.6503 -10.6503 -10.5258 -10.5258
     4.9011   4.9011   5.0295   5.0295   5.7029   5.7029   5.9244   5.9244
     8.3223   8.3223   8.5377   8.5377   8.6305   8.6305   8.6849   8.6849
    10.2987  10.2987  10.5334  10.5334  10.6151  10.6151  10.7447  10.7447
    10.9261  10.9261

          k = 0.0000-1.1547 0.3132 (  5768 PWs)   bands (ev):

   -34.9045 -34.9045 -34.7017 -34.7017 -34.2688 -34.2688 -34.1216 -34.1216
   -15.6805 -15.6785 -15.4993 -15.4926 -15.3645 -15.3572 -15.2246 -15.2216
   -11.6264 -11.6050 -11.5111 -11.4875 -11.4513 -11.4432 -11.3864 -11.3548
   -11.1997 -11.1929 -11.1085 -11.0890 -10.6506 -10.6347 -10.5262 -10.5100
     4.7853   4.8192   4.8445   4.8930   5.8251   5.9275   6.0319   6.1182
     8.1466   8.1779   8.2248   8.2585   9.0467   9.0621   9.0809   9.0872
    10.0589  10.1102  10.2434  10.2839  10.7768  10.8150  10.8577  10.9311
    11.0825  11.1128

          k = 0.0000-1.1547-0.6263 (  5800 PWs)   bands (ev):

   -34.9044 -34.9044 -34.7016 -34.7016 -34.2689 -34.2689 -34.1217 -34.1217
   -15.6804 -15.6804 -15.4948 -15.4948 -15.3651 -15.3651 -15.2248 -15.2248
   -11.6295 -11.6295 -11.5137 -11.5137 -11.4406 -11.4406 -11.3539 -11.3539
   -11.1881 -11.1881 -11.1025 -11.1025 -10.6345 -10.6345 -10.5105 -10.5105
     4.6755   4.6755   4.8386   4.8386   5.8425   5.8425   6.3055   6.3055
     8.0031   8.0031   8.2774   8.2774   9.4126   9.4126   9.5168   9.5168
     9.7815   9.7815   9.8328   9.8328  10.8890  10.8890  10.9006  10.9006
    11.7652  11.7652

          k = 0.2500 0.1443 0.0000 (  5751 PWs)   bands (ev):

   -34.9197 -34.9197 -34.7163 -34.7163 -34.2829 -34.2829 -34.1347 -34.1347
   -15.6493 -15.6486 -15.4701 -15.4677 -15.3164 -15.3131 -15.1577 -15.1562
   -11.6167 -11.6123 -11.4984 -11.4864 -11.3845 -11.3599 -11.2082 -11.2049
   -11.0707 -11.0617 -11.0078 -11.0057 -10.5619 -10.5587 -10.3298 -10.3282
     3.3114   3.3497   4.6464   4.7152   5.7983   5.8407   6.3563   6.4441
     8.0428   8.1246   8.5096   8.5303   8.9571   9.0297   9.7464   9.8065
    10.2340  10.2635  10.7268  10.7514  10.8334  10.8845  10.9693  10.9957
    11.4200  11.4608

          k = 0.2500 0.1443 0.3132 (  5768 PWs)   bands (ev):

   -34.9193 -34.9193 -34.7159 -34.7159 -34.2834 -34.2834 -34.1351 -34.1350
   -15.6446 -15.6382 -15.4548 -15.4513 -15.3254 -15.3234 -15.1748 -15.1685
   -11.5864 -11.5829 -11.4762 -11.4542 -11.3823 -11.3587 -11.2454 -11.2133
   -11.0945 -11.0832 -11.0431 -11.0217 -10.5619 -10.5452 -10.3321 -10.3300
     3.6032   3.6381   4.7723   4.8248   5.6974   5.7011   6.1871   6.2283
     7.8452   7.8524   8.2402   8.3068   9.2733   9.3088   9.7428   9.7621
    10.1413  10.2065  10.5042  10.5093  10.5808  10.6236  11.1714  11.1905
    11.2467  11.2604

          k = 0.2500 0.1443-0.6263 (  5782 PWs)   bands (ev):

   -34.9190 -34.9190 -34.7155 -34.7155 -34.2838 -34.2838 -34.1354 -34.1354
   -15.6345 -15.6343 -15.4329 -15.4327 -15.3369 -15.3353 -15.1890 -15.1875
   -11.5691 -11.5585 -11.4086 -11.4019 -11.3804 -11.3728 -11.2571 -11.2480
   -11.1546 -11.1374 -11.0390 -11.0366 -10.5521 -10.5494 -10.3306 -10.3298
     4.1261   4.1519   4.5369   4.5743   5.4660   5.4694   6.3490   6.3712
     7.5815   7.6211   8.2005   8.2343   9.3954   9.4073   9.7326   9.7494
     9.9070   9.9104  10.5508  10.5569  10.7208  10.7249  10.9010  10.9155
    11.1401  11.1459

          k = 0.2500 0.7217 0.0000 (  5780 PWs)   bands (ev):

   -34.9118 -34.9118 -34.7094 -34.7094 -34.2756 -34.2755 -34.1285 -34.1284
   -15.6634 -15.6591 -15.4861 -15.4797 -15.3320 -15.3291 -15.1941 -15.1933
   -11.6243 -11.5957 -11.5036 -11.4720 -11.3773 -11.3650 -11.3148 -11.2836
   -11.1627 -11.1263 -11.0976 -11.0633 -10.5911 -10.5876 -10.4649 -10.4611
     4.3324   4.3843   4.5396   4.5929   5.8093   5.8684   6.1377   6.2486
     8.4386   8.4873   8.7299   8.7562   9.0954   9.1265   9.2992   9.3500
    10.2063  10.2847  10.5380  10.5742  10.6148  10.6611  10.7642  10.8317
    10.8649  10.8959

          k = 0.2500 0.7217 0.3132 (  5788 PWs)   bands (ev):

   -34.9117 -34.9117 -34.7091 -34.7091 -34.2758 -34.2757 -34.1287 -34.1286
   -15.6593 -15.6559 -15.4784 -15.4725 -15.3415 -15.3357 -15.2017 -15.1986
   -11.6125 -11.5854 -11.4913 -11.4595 -11.3722 -11.3568 -11.3245 -11.3086
   -11.1584 -11.1336 -11.1096 -11.0848 -10.5904 -10.5772 -10.4650 -10.4514
     4.4006   4.4507   4.6034   4.6584   5.7621   5.8151   6.1941   6.2942
     8.4403   8.4769   8.7346   8.7741   9.0857   9.1521   9.4496   9.4817
     9.7956   9.8365  10.0587  10.1135  10.6790  10.7172  10.7590  10.7821
    11.1017  11.1316

          k = 0.2500 0.7217-0.6263 (  5776 PWs)   bands (ev):

   -34.9115 -34.9115 -34.7088 -34.7088 -34.2761 -34.2760 -34.1290 -34.1289
   -15.6549 -15.6511 -15.4684 -15.4647 -15.3504 -15.3453 -15.2103 -15.2050
   -11.6029 -11.5537 -11.4767 -11.4418 -11.3827 -11.3701 -11.3453 -11.2997
   -11.1621 -11.1518 -11.1286 -11.0981 -10.5857 -10.5680 -10.4629 -10.4429
     4.5570   4.5858   4.6785   4.7110   5.7343   5.7645   6.1308   6.1957
     8.3755   8.4205   8.6878   8.7395   9.3606   9.3805   9.5049   9.5236
     9.7586   9.7674   9.9448   9.9608  10.2654  10.2986  10.3323  10.3581
    11.5598  11.6581

          k = 0.2500-1.0104 0.0000 (  5830 PWs)   bands (ev):

   -34.9045 -34.9045 -34.7018 -34.7018 -34.2687 -34.2687 -34.1216 -34.1216
   -15.6780 -15.6780 -15.4976 -15.4973 -15.3551 -15.3548 -15.2209 -15.2208
   -11.5999 -11.5936 -11.4812 -11.4737 -11.4664 -11.4505 -11.3729 -11.3423
   -11.2239 -11.2089 -11.1155 -11.1142 -10.6589 -10.6570 -10.5368 -10.5358
     4.8973   4.9266   4.9918   5.0183   5.7381   5.7703   5.8916   5.9326
     8.5641   8.6081   8.6767   8.7097   8.8040   8.8236   8.9054   8.9366
    10.1868  10.2081  10.3661  10.4011  10.5787  10.5978  10.7578  10.7763
    10.9628  11.0144

          k = 0.2500-1.0104 0.3132 (  5808 PWs)   bands (ev):

   -34.9045 -34.9045 -34.7017 -34.7017 -34.2688 -34.2688 -34.1216 -34.1216
   -15.6798 -15.6779 -15.4989 -15.4924 -15.3634 -15.3563 -15.2239 -15.2210
   -11.6284 -11.6041 -11.5017 -11.4742 -11.4456 -11.4375 -11.3559 -11.3408
   -11.2166 -11.2121 -11.1297 -11.0997 -10.6598 -10.6396 -10.5372 -10.5183
     4.7822   4.8052   4.8381   4.8675   5.9367   6.0140   6.0701   6.1352
     8.3772   8.4230   8.4755   8.5253   9.1519   9.1808   9.2451   9.2674
     9.9001   9.9445  10.0525  10.0984  10.5726  10.6076  10.6531  10.6719
    11.1544  11.1759

          k = 0.2500-1.0104-0.6263 (  5768 PWs)   bands (ev):

   -34.9044 -34.9044 -34.7016 -34.7016 -34.2689 -34.2689 -34.1217 -34.1217
   -15.6796 -15.6796 -15.4938 -15.4937 -15.3647 -15.3646 -15.2243 -15.2243
   -11.6334 -11.6284 -11.4993 -11.4889 -11.4339 -11.4313 -11.3491 -11.3372
   -11.2106 -11.2086 -11.1172 -11.1118 -10.6475 -10.6389 -10.5206 -10.5148
     4.7533   4.7769   4.8931   4.9226   5.8359   5.8599   6.1784   6.2093
     8.2636   8.3012   8.4744   8.5343   9.5238   9.5525   9.6044   9.6275
     9.7451   9.7687   9.8330   9.8575  10.3976  10.4017  10.4557  10.4682
    11.5597  11.6082

          k = 0.2500-0.4330 0.0000 (  5792 PWs)   bands (ev):

   -34.9124 -34.9124 -34.7088 -34.7088 -34.2762 -34.2761 -34.1278 -34.1278
   -15.6662 -15.6626 -15.4853 -15.4780 -15.3396 -15.3362 -15.1844 -15.1835
   -11.6186 -11.5925 -11.5051 -11.4607 -11.4144 -11.3792 -11.3077 -11.2928
   -11.1618 -11.1275 -11.0649 -11.0421 -10.6514 -10.6478 -10.4121 -10.4087
     3.7666   3.8336   5.0403   5.0536   5.8645   5.9384   6.1875   6.3302
     8.3233   8.3721   8.9545   8.9610   8.9901   9.1576   9.7170   9.7753
    10.0249  10.1083  10.2900  10.3076  10.5480  10.5879  11.0605  11.0754
    11.2004  11.3348

          k = 0.2500-0.4330 0.3132 (  5790 PWs)   bands (ev):

   -34.9122 -34.9122 -34.7086 -34.7086 -34.2765 -34.2764 -34.1281 -34.1280
   -15.6636 -15.6594 -15.4745 -15.4677 -15.3462 -15.3424 -15.1953 -15.1930
   -11.6242 -11.5696 -11.4920 -11.4499 -11.4081 -11.3471 -11.3279 -11.3024
   -11.1676 -11.1390 -11.0923 -11.0676 -10.6549 -10.6261 -10.4099 -10.4029
     4.0297   4.0882   4.9911   5.0115   5.8520   5.9161   6.1165   6.2073
     8.1513   8.1770   8.7227   8.7859   9.2376   9.3001   9.7995   9.8160
     9.8498   9.9492  10.0897  10.1108  10.3546  10.4715  11.0325  11.1084
    11.2706  11.2911

          k = 0.2500-0.4330-0.6263 (  5812 PWs)   bands (ev):

   -34.9120 -34.9120 -34.7083 -34.7083 -34.2768 -34.2767 -34.1283 -34.1282
   -15.6621 -15.6570 -15.4600 -15.4579 -15.3537 -15.3503 -15.2068 -15.2008
   -11.6445 -11.5446 -11.4442 -11.4290 -11.3929 -11.3736 -11.3469 -11.2974
   -11.1790 -11.1677 -11.0950 -11.0848 -10.6562 -10.6091 -10.4062 -10.4027
     4.3458   4.3763   4.9680   5.0021   5.6552   5.6804   6.1275   6.2112
     7.9856   8.0589   8.6941   8.7234   9.4430   9.4733   9.5421   9.5875
     9.7449   9.8848  10.1847  10.3052  10.3451  10.3744  10.5248  10.5722
    11.3263  11.3623

          k =-0.5000-0.2887 0.0000 (  5780 PWs)   bands (ev):

   -34.9191 -34.9191 -34.7169 -34.7169 -34.2823 -34.2823 -34.1353 -34.1353
   -15.6456 -15.6456 -15.4699 -15.4699 -15.3056 -15.3056 -15.1664 -15.1664
   -11.6180 -11.6180 -11.4961 -11.4961 -11.3056 -11.3056 -11.1963 -11.1963
   -11.1274 -11.1274 -11.0182 -11.0182 -10.5145 -10.5145 -10.3854 -10.3854
     3.8358   3.8358   4.1219   4.1219   5.9605   5.9605   6.3981   6.3981
     8.2540   8.2540   8.5133   8.5133   9.2928   9.2928   9.7342   9.7342
    10.2412  10.2412  10.4958  10.4958  10.8980  10.8980  11.0274  11.0274
    11.2942  11.2942

          k =-0.5000-0.2887 0.3132 (  5750 PWs)   bands (ev):

   -34.9188 -34.9188 -34.7165 -34.7165 -34.2827 -34.2827 -34.1357 -34.1357
   -15.6392 -15.6338 -15.4566 -15.4554 -15.3179 -15.3173 -15.1816 -15.1754
   -11.5888 -11.5793 -11.4724 -11.4542 -11.3204 -11.3101 -11.2381 -11.2233
   -11.1357 -11.1334 -11.0646 -11.0277 -10.5143 -10.5068 -10.3875 -10.3800
     4.0004   4.0386   4.2939   4.3470   5.7468   5.7939   6.3223   6.3758
     8.1391   8.1687   8.3862   8.3932   9.2778   9.2941   9.7456   9.8004
     9.9395   9.9485  10.1378  10.1693  10.8900  10.9049  11.0081  11.0343
    11.3072  11.3248

          k =-0.5000-0.2887-0.6263 (  5788 PWs)   bands (ev):

   -34.9185 -34.9185 -34.7160 -34.7160 -34.2831 -34.2831 -34.1361 -34.1361
   -15.6268 -15.6268 -15.4397 -15.4397 -15.3316 -15.3316 -15.1916 -15.1916
   -11.5387 -11.5387 -11.4146 -11.4146 -11.3623 -11.3623 -11.2304 -11.2304
   -11.1805 -11.1805 -11.0592 -11.0592 -10.5070 -10.5070 -10.3824 -10.3824
     4.3565   4.3565   4.4391   4.4391   5.6225   5.6225   6.1247   6.1247
     8.0039   8.0039   8.4166   8.4166   9.3198   9.3198   9.6177   9.6177
     9.9367   9.9367  10.3029  10.3029  10.5008  10.5008  10.5357  10.5357
    11.6253  11.6258

          k =-0.5000 0.2887 0.0000 (  5800 PWs)   bands (ev):

   -34.9121 -34.9121 -34.7091 -34.7091 -34.2759 -34.2758 -34.1282 -34.1281
   -15.6648 -15.6607 -15.4856 -15.4790 -15.3360 -15.3329 -15.1894 -15.1879
   -11.6207 -11.5945 -11.5012 -11.4693 -11.3942 -11.3871 -11.2939 -11.2858
   -11.1663 -11.1390 -11.0709 -11.0540 -10.6265 -10.6214 -10.4337 -10.4306
     3.9467   4.0177   4.8925   4.9519   5.8088   5.8756   6.1702   6.2984
     8.3883   8.4110   8.7541   8.8197   9.1440   9.2321   9.4326   9.4806
    10.0740  10.1325  10.4702  10.5250  10.6579  10.7190  10.9370  10.9932
    11.0829  11.1626

          k =-0.5000 0.2887 0.3132 (  5776 PWs)   bands (ev):

   -34.9119 -34.9119 -34.7088 -34.7088 -34.2761 -34.2761 -34.1284 -34.1283
   -15.6620 -15.6579 -15.4764 -15.4711 -15.3426 -15.3397 -15.1988 -15.1945
   -11.6184 -11.5842 -11.4897 -11.4594 -11.3984 -11.3580 -11.3135 -11.2907
   -11.1658 -11.1371 -11.0981 -11.0747 -10.6287 -10.6071 -10.4319 -10.4240
     4.0789   4.1308   4.8788   4.9334   5.8411   5.8984   6.1980   6.3013
     8.2819   8.2920   8.8493   8.8752   9.1633   9.2551   9.4317   9.4597
     9.8981   9.9737  10.1180  10.1348  10.3940  10.4637  10.9821  11.0117
    11.1844  11.2298

          k =-0.5000 0.2887-0.6263 (  5782 PWs)   bands (ev):

   -34.9117 -34.9117 -34.7086 -34.7086 -34.2764 -34.2763 -34.1286 -34.1285
   -15.6585 -15.6542 -15.4641 -15.4612 -15.3522 -15.3478 -15.2085 -15.2029
   -11.6259 -11.5494 -11.4554 -11.4380 -11.3857 -11.3747 -11.3453 -11.2977
   -11.1721 -11.1626 -11.1078 -11.0920 -10.6265 -10.5907 -10.4276 -10.4218
     4.3987   4.4423   4.8693   4.9148   5.7095   5.7368   6.0947   6.1666
     8.1180   8.1963   8.8630   8.8981   9.2114   9.2755   9.4995   9.5075
     9.9730  10.0430  10.0582  10.1319  10.2142  10.2308  10.5049  10.5266
    11.4468  11.4831

          k =-0.5000-1.4434 0.0000 (  5820 PWs)   bands (ev):

   -34.9045 -34.9045 -34.7018 -34.7018 -34.2687 -34.2687 -34.1216 -34.1216
   -15.6775 -15.6775 -15.4974 -15.4974 -15.3537 -15.3537 -15.2202 -15.2202
   -11.5952 -11.5952 -11.4785 -11.4785 -11.4458 -11.4458 -11.3096 -11.3096
   -11.2597 -11.2597 -11.1260 -11.1260 -10.6655 -10.6655 -10.5470 -10.5470
     4.9185   4.9185   4.9887   4.9887   5.7968   5.7968   5.9047   5.9047
     8.8141   8.8141   8.9683   8.9683   9.0876   9.0876   9.2368   9.2368
    10.0083  10.0083  10.1385  10.1385  10.6242  10.6242  10.8492  10.8492
    11.1365  11.1365

          k =-0.5000-1.4434 0.3132 (  5802 PWs)   bands (ev):

   -34.9045 -34.9045 -34.7017 -34.7017 -34.2688 -34.2688 -34.1216 -34.1216
   -15.6791 -15.6772 -15.4985 -15.4917 -15.3627 -15.3553 -15.2235 -15.2205
   -11.6286 -11.5975 -11.4992 -11.4579 -11.4379 -11.4273 -11.3234 -11.3133
   -11.2484 -11.2454 -11.1444 -11.1136 -10.6658 -10.6494 -10.5445 -10.5288
     4.8919   4.9114   4.9624   4.9872   5.8275   5.8512   5.9545   5.9811
     8.7894   8.8224   8.8876   8.9132   9.2548   9.2778   9.3437   9.3494
     9.9065   9.9354  10.0121  10.0153  10.3633  10.3765  10.4420  10.4479
    11.1415  11.1561

          k =-0.5000-1.4434-0.6263 (  5776 PWs)   bands (ev):

   -34.9044 -34.9044 -34.7016 -34.7016 -34.2689 -34.2689 -34.1217 -34.1217
   -15.6788 -15.6788 -15.4928 -15.4928 -15.3643 -15.3643 -15.2238 -15.2238
   -11.6319 -11.6319 -11.4722 -11.4722 -11.4253 -11.4253 -11.3286 -11.3286
   -11.2357 -11.2357 -11.1275 -11.1275 -10.6522 -10.6522 -10.5248 -10.5248
     4.8699   4.8699   4.9809   4.9809   5.8683   5.8683   6.0484   6.0484
     8.7199   8.7199   8.9518   8.9518   9.2532   9.2532   9.4411   9.4411
     9.9517   9.9517  10.0425  10.0425  10.0769  10.0769  10.1728  10.1728
    11.3620  11.3620

          k = 0.0000-0.5773 0.3132 (  5776 PWs)   bands (ev):

   -34.9119 -34.9119 -34.7088 -34.7088 -34.2762 -34.2761 -34.1284 -34.1283
   -15.6615 -15.6570 -15.4757 -15.4701 -15.3428 -15.3404 -15.1992 -15.1959
   -11.6167 -11.5783 -11.4858 -11.4575 -11.3984 -11.3591 -11.3211 -11.2906
   -11.1714 -11.1419 -11.0975 -11.0765 -10.6280 -10.6054 -10.4309 -10.4228
     4.1296   4.1867   4.8429   4.8991   5.8728   5.9267   6.1521   6.2479
     8.2440   8.2618   8.7632   8.7996   9.1771   9.2709   9.4921   9.5126
     9.8816   9.9720  10.2469  10.2748  10.3883  10.4441  10.9478  10.9750
    11.1668  11.2158

          k =-0.2500-0.1443 0.3132 (  5768 PWs)   bands (ev):

   -34.9193 -34.9193 -34.7159 -34.7159 -34.2834 -34.2834 -34.1351 -34.1350
   -15.6446 -15.6390 -15.4534 -15.4526 -15.3255 -15.3216 -15.1738 -15.1705
   -11.6007 -11.5788 -11.4775 -11.4559 -11.3698 -11.3553 -11.2367 -11.2160
   -11.0943 -11.0858 -11.0491 -11.0196 -10.5633 -10.5517 -10.3297 -10.3262
     3.6596   3.6921   4.4553   4.5045   5.8856   5.9119   6.4233   6.4634
     7.7698   7.7765   8.3654   8.3706   9.0524   9.0705   9.7771   9.7983
    10.0610  10.0698  10.5815  10.5950  10.8923  10.9419  11.1322  11.1596
    11.2397  11.2654

          k =-0.2500-0.7217 0.3132 (  5788 PWs)   bands (ev):

   -34.9117 -34.9117 -34.7091 -34.7091 -34.2758 -34.2757 -34.1287 -34.1286
   -15.6588 -15.6547 -15.4778 -15.4717 -15.3418 -15.3367 -15.2023 -15.1994
   -11.6095 -11.5789 -11.4883 -11.4558 -11.3739 -11.3621 -11.3289 -11.3097
   -11.1615 -11.1345 -11.1137 -11.0875 -10.5888 -10.5750 -10.4644 -10.4503
     4.4455   4.4942   4.6221   4.6736   5.7639   5.8128   6.1024   6.2032
     8.4147   8.4707   8.7298   8.7551   9.0795   9.1279   9.4772   9.5251
     9.8583   9.9120  10.1497  10.2095  10.5997  10.6472  10.7016  10.7869
    11.0917  11.1129

          k =-0.2500 1.0104 0.3132 (  5808 PWs)   bands (ev):

   -34.9045 -34.9045 -34.7017 -34.7017 -34.2688 -34.2688 -34.1216 -34.1216
   -15.6798 -15.6778 -15.4989 -15.4919 -15.3638 -15.3561 -15.2241 -15.2210
   -11.6271 -11.5983 -11.5093 -11.4715 -11.4417 -11.4362 -11.3649 -11.3353
   -11.2264 -11.2123 -11.1216 -11.1024 -10.6566 -10.6445 -10.5335 -10.5203
     4.8996   4.9140   5.0052   5.0192   5.6955   5.7550   5.9113   5.9696
     8.3971   8.4264   8.5058   8.5354   9.1787   9.1968   9.2532   9.2763
    10.0479  10.1176  10.3136  10.3742  10.4581  10.4945  10.5678  10.5824
    10.9183  10.9478

          k =-0.2500 0.4330 0.3132 (  5790 PWs)   bands (ev):

   -34.9122 -34.9122 -34.7086 -34.7086 -34.2765 -34.2764 -34.1280 -34.1280
   -15.6642 -15.6601 -15.4755 -15.4685 -15.3460 -15.3416 -15.1949 -15.1916
   -11.6257 -11.5764 -11.4949 -11.4503 -11.4092 -11.3480 -11.3221 -11.3014
   -11.1634 -11.1369 -11.0874 -11.0650 -10.6555 -10.6270 -10.4113 -10.4051
     3.9861   4.0356   5.0120   5.0431   5.8732   5.9260   6.1219   6.2230
     8.2142   8.2364   8.7419   8.8010   9.2405   9.3104   9.6456   9.6589
     9.8642   9.9865  10.0349  10.0410  10.3351  10.4384  11.0748  11.1448
    11.2537  11.2749

          k = 0.5000-0.2887 0.3132 (  5776 PWs)   bands (ev):

   -34.9119 -34.9119 -34.7088 -34.7088 -34.2762 -34.2761 -34.1284 -34.1283
   -15.6610 -15.6572 -15.4765 -15.4691 -15.3452 -15.3389 -15.1985 -15.1962
   -11.6163 -11.5705 -11.4944 -11.4486 -11.3945 -11.3580 -11.3200 -11.3107
   -11.1608 -11.1495 -11.1033 -11.0706 -10.6256 -10.6025 -10.4332 -10.4242
     4.2117   4.2824   4.8810   4.9336   5.7445   5.7995   6.0678   6.1565
     8.2571   8.3051   8.7085   8.7458   9.2764   9.3468   9.5997   9.6381
     9.9293   9.9690  10.0860  10.1069  10.4084  10.4888  10.9675  10.9956
    11.0961  11.1475

     the Fermi energy is     9.7933 ev

!    total energy              =   -2242.60487414 Ry
     Harris-Foulkes estimate   =   -2242.60487419 Ry
     estimated scf accuracy    <       0.00000007 Ry

     total all-electron energy =    -90246.948268 Ry

     The total energy is the sum of the following terms:

     one-electron contribution =     -55.29814260 Ry
     hartree contribution      =      46.33098259 Ry
     xc contribution           =    -254.56688151 Ry
     ewald contribution        =    -230.99757413 Ry
     one-center paw contrib.   =   -1748.06954241 Ry
     smearing contrib. (-TS)   =      -0.00371608 Ry

     convergence has been achieved in  11 iterations

     Writing output data file 2336.save
 
     init_run     :      2.32s CPU      3.50s WALL (       1 calls)
     electrons    :     51.39s CPU     55.03s WALL (       1 calls)

     Called by init_run:
     wfcinit      :      2.04s CPU      2.70s WALL (       1 calls)
     potinit      :      0.11s CPU      0.25s WALL (       1 calls)

     Called by electrons:
     c_bands      :     43.19s CPU     45.48s WALL (      11 calls)
     sum_band     :      6.05s CPU      6.43s WALL (      11 calls)
     v_of_rho     :      0.03s CPU      0.04s WALL (      12 calls)
     newd         :      0.85s CPU      0.92s WALL (      12 calls)
     PAW_pot      :      1.33s CPU      1.44s WALL (      12 calls)
     mix_rho      :      0.09s CPU      0.10s WALL (      11 calls)

     Called by c_bands:
     init_us_2    :      0.29s CPU      0.31s WALL (     828 calls)
     cegterg      :     40.59s CPU     42.62s WALL (     396 calls)

     Called by sum_band:
     sum_band:bec :      1.91s CPU      1.92s WALL (     396 calls)
     addusdens    :      0.29s CPU      0.34s WALL (      11 calls)

     Called by *egterg:
     h_psi        :     20.77s CPU     22.46s WALL (    1905 calls)
     s_psi        :      2.45s CPU      2.48s WALL (    1905 calls)
     g_psi        :      0.05s CPU      0.05s WALL (    1473 calls)
     cdiaghg      :     11.66s CPU     12.08s WALL (    1869 calls)

     Called by h_psi:
     h_psi:pot    :     20.38s CPU     22.06s WALL (    1905 calls)
     h_psi:calbec :      1.74s CPU      2.02s WALL (    1905 calls)
     vloc_psi     :     16.17s CPU     17.53s WALL (    1905 calls)
     add_vuspsi   :      2.45s CPU      2.49s WALL (    1905 calls)

     General routines
     calbec       :      2.16s CPU      2.52s WALL (    2301 calls)
     fft          :      0.04s CPU      0.22s WALL (     224 calls)
     fftw         :     17.03s CPU     18.47s WALL (  295340 calls)
     davcio       :      0.00s CPU      0.01s WALL (      36 calls)
 
     Parallel routines
     fft_scatter  :     11.80s CPU     12.79s WALL (  295564 calls)
 
     PWSCF        :  0m54.52s CPU     2m14.80s WALL

 
   This run was terminated on:  11: 1:33  16Nov2022            

=------------------------------------------------------------------------------=
   JOB DONE.
=------------------------------------------------------------------------------=
Removing 2336 from /home/shaharpit/tmp
