
     Program PWSCF v.6.1 (svn rev. 13369) starts on 16Nov2022 at 10:59:48 

     This program is part of the open-source Quantum ESPRESSO suite
     for quantum simulation of materials; please cite
         "P. Giannozzi et al., J. Phys.:Condens. Matter 21 395502 (2009);
          URL http://www.quantum-espresso.org", 
     in publications or presentations arising from this work. More details at
     http://www.quantum-espresso.org/quote

     Parallel version (MPI), running on    32 processors
     R & G space division:  proc/nbgrp/npool/nimage =      32
     Reading input from ./hcp_50_1.in
Warning: card &IONS ignored
Warning: card 	ION_DYNAMICS='BFGS', ignored
Warning: card / ignored
Warning: card &CELL ignored
Warning: card / ignored

     Current dimensions of program PWSCF are:
     Max number of different atomic species (ntypx) = 10
     Max number of k-points (npk) =  40000
     Max angular momentum in pseudopotentials (lmaxx) =  3
               file Gd.rel-pbe-spdn-kjpaw_psl.1.0.0.UPF: wavefunction(s)  5P 5P renormalized
               file H.pbe-kjpaw_psl.0.1.UPF: wavefunction(s)  1S renormalized

     Subspace diagonalization in iterative solution of the eigenvalue problem:
     a serial algorithm will be used

 
     Parallelization info
     --------------------
     sticks:   dense  smooth     PW     G-vecs:    dense   smooth      PW
     Min          40      40     12                 1314     1314     220
     Max          41      41     13                 1319     1319     225
     Sum        1287    1287    397                42147    42147    7103
 


     bravais-lattice index     =            0
     lattice parameter (alat)  =      13.6588  a.u.
     unit-cell volume          =     880.8636 (a.u.)^3
     number of atoms/cell      =            8
     number of atomic types    =            2
     number of electrons       =        48.00
     number of Kohn-Sham states=           58
     kinetic-energy cutoff     =      50.0000  Ry
     charge density cutoff     =     200.0000  Ry
     convergence threshold     =      1.0E-06
     mixing beta               =       0.7000
     number of iterations used =            8  plain     mixing
     Exchange-correlation      =  SLA  PW   PBX  PBC ( 1  4  3  4 0 0)
     Non magnetic calculation with spin-orbit


     celldm(1)=  13.658752  celldm(2)=   0.000000  celldm(3)=   0.000000
     celldm(4)=   0.000000  celldm(5)=   0.000000  celldm(6)=   0.000000

     crystal axes: (cart. coord. in units of alat)
               a(1) = (   1.000000   0.000000   0.000000 )  
               a(2) = (  -0.250003   0.433017   0.000000 )  
               a(3) = (   0.000000   0.000000   0.798309 )  

     reciprocal axes: (cart. coord. in units 2 pi/alat)
               b(1) = (  1.000000  0.577353  0.000000 )  
               b(2) = (  0.000000  2.309381  0.000000 )  
               b(3) = (  0.000000  0.000000  1.252647 )  


     PseudoPot. # 1 for Gd read from file:
     /home/shaharpit/MeamGdH/dft/qe_potentials/Gd.rel-pbe-spdn-kjpaw_psl.1.0.0.UPF
     MD5 check sum: cf50ec46d1536b4a0251694df1946a53
     Pseudo is Projector augmented-wave + core cor, Zval = 11.0
     Generated using "atomic" code by A. Dal Corso  v.6.2.2
     Shape of augmentation charge: PSQ
     Using radial grid of 1263 points, 10 beta functions with: 
                l(1) =   0
                l(2) =   0
                l(3) =   1
                l(4) =   1
                l(5) =   1
                l(6) =   1
                l(7) =   2
                l(8) =   2
                l(9) =   2
               l(10) =   2
     Q(r) pseudized with 0 coefficients 


     PseudoPot. # 2 for  H read from file:
     /home/shaharpit/MeamGdH/dft/qe_potentials/H.pbe-kjpaw_psl.0.1.UPF
     MD5 check sum: fbb168fef676c0aaadbafd73f5b1efa8
     Pseudo is Projector augmented-wave, Zval =  1.0
     Generated using "atomic" code by A. Dal Corso  v.5.0.2 svn rev. 9415
     Shape of augmentation charge: PSQ
     Using radial grid of  929 points,  2 beta functions with: 
                l(1) =   0
                l(2) =   0
     Q(r) pseudized with 0 coefficients 


     atomic species   valence    mass     pseudopotential
        Gd            11.00   157.25000     Gd( 1.00)
        H              1.00     1.00794      H( 1.00)

     No symmetry found



   Cartesian axes

     site n.     atom                  positions (alat units)
         1           Gd  tau(   1) = (   0.2499738   0.1443244   0.5987320  )
         2           Gd  tau(   2) = (   0.7499738   0.1443244   0.5987320  )
         3           Gd  tau(   3) = (   0.0000227   0.2886921   0.1995773  )
         4           Gd  tau(   4) = (   0.5000227   0.2886921   0.1995773  )
         5           H   tau(   5) = (   0.2603489   0.1351878   0.7734021  )
         6           H   tau(   6) = (   0.7141741   0.1153989   0.7679736  )
         7           H   tau(   7) = (   0.7240968   0.3952575   0.4070579  )
         8           H   tau(   8) = (   0.2676216   0.4208487   0.3987555  )

     number of k points=    36  gaussian smearing, width (Ry)=  0.0100
                       cart. coord. in units 2pi/alat
        k(    1) = (   0.0000000   0.0000000   0.0000000), wk =   0.0156250
        k(    2) = (   0.0000000   0.0000000   0.3131618), wk =   0.0312500
        k(    3) = (   0.0000000   0.0000000  -0.6263236), wk =   0.0156250
        k(    4) = (   0.0000000   0.5773452   0.0000000), wk =   0.0312500
        k(    5) = (   0.0000000   0.5773452   0.3131618), wk =   0.0312500
        k(    6) = (   0.0000000   0.5773452  -0.6263236), wk =   0.0312500
        k(    7) = (   0.0000000  -1.1546904   0.0000000), wk =   0.0156250
        k(    8) = (   0.0000000  -1.1546904   0.3131618), wk =   0.0312500
        k(    9) = (   0.0000000  -1.1546904  -0.6263236), wk =   0.0156250
        k(   10) = (   0.2500000   0.1443383   0.0000000), wk =   0.0312500
        k(   11) = (   0.2500000   0.1443383   0.3131618), wk =   0.0312500
        k(   12) = (   0.2500000   0.1443383  -0.6263236), wk =   0.0312500
        k(   13) = (   0.2500000   0.7216835   0.0000000), wk =   0.0312500
        k(   14) = (   0.2500000   0.7216835   0.3131618), wk =   0.0312500
        k(   15) = (   0.2500000   0.7216835  -0.6263236), wk =   0.0312500
        k(   16) = (   0.2500000  -1.0103521   0.0000000), wk =   0.0312500
        k(   17) = (   0.2500000  -1.0103521   0.3131618), wk =   0.0312500
        k(   18) = (   0.2500000  -1.0103521  -0.6263236), wk =   0.0312500
        k(   19) = (   0.2500000  -0.4330069   0.0000000), wk =   0.0312500
        k(   20) = (   0.2500000  -0.4330069   0.3131618), wk =   0.0312500
        k(   21) = (   0.2500000  -0.4330069  -0.6263236), wk =   0.0312500
        k(   22) = (  -0.5000000  -0.2886766   0.0000000), wk =   0.0156250
        k(   23) = (  -0.5000000  -0.2886766   0.3131618), wk =   0.0312500
        k(   24) = (  -0.5000000  -0.2886766  -0.6263236), wk =   0.0156250
        k(   25) = (  -0.5000000   0.2886686   0.0000000), wk =   0.0312500
        k(   26) = (  -0.5000000   0.2886686   0.3131618), wk =   0.0312500
        k(   27) = (  -0.5000000   0.2886686  -0.6263236), wk =   0.0312500
        k(   28) = (  -0.5000000  -1.4433670   0.0000000), wk =   0.0156250
        k(   29) = (  -0.5000000  -1.4433670   0.3131618), wk =   0.0312500
        k(   30) = (  -0.5000000  -1.4433670  -0.6263236), wk =   0.0156250
        k(   31) = (   0.0000000  -0.5773452   0.3131618), wk =   0.0312500
        k(   32) = (  -0.2500000  -0.1443383   0.3131618), wk =   0.0312500
        k(   33) = (  -0.2500000  -0.7216835   0.3131618), wk =   0.0312500
        k(   34) = (  -0.2500000   1.0103521   0.3131618), wk =   0.0312500
        k(   35) = (  -0.2500000   0.4330069   0.3131618), wk =   0.0312500
        k(   36) = (   0.5000000  -0.2886686   0.3131618), wk =   0.0312500

     Dense  grid:    42147 G-vectors     FFT dimensions: (  64,  32,  50)

     Estimated max dynamical RAM per process >      17.83MB

     Estimated total allocated dynamical RAM >     570.41MB

     Initial potential from superposition of free atoms

     starting charge   47.92377, renormalised to   48.00000
     Starting wfc are  112 randomized atomic wfcs
     Checking if some PAW data can be deallocated... 

     total cpu time spent up to now is        6.9 secs

     per-process dynamical memory:    62.9 Mb

     Self-consistent Calculation

     iteration #  1     ecut=    50.00 Ry     beta=0.70
     Davidson diagonalization with overlap
     ethr =  1.00E-02,  avg # of iterations =  2.0

     total cpu time spent up to now is       14.1 secs

     total energy              =   -2242.24348754 Ry
     Harris-Foulkes estimate   =   -2242.71868871 Ry
     estimated scf accuracy    <       0.69364881 Ry

     iteration #  2     ecut=    50.00 Ry     beta=0.70
     Davidson diagonalization with overlap
     ethr =  1.45E-03,  avg # of iterations =  4.5

     total cpu time spent up to now is       23.5 secs

     total energy              =   -2241.91877800 Ry
     Harris-Foulkes estimate   =   -2242.96338830 Ry
     estimated scf accuracy    <       3.12038508 Ry

     iteration #  3     ecut=    50.00 Ry     beta=0.70
     Davidson diagonalization with overlap
     ethr =  1.45E-03,  avg # of iterations =  4.1

     total cpu time spent up to now is       32.2 secs

     total energy              =   -2242.46248879 Ry
     Harris-Foulkes estimate   =   -2242.57076935 Ry
     estimated scf accuracy    <       0.37276735 Ry

     iteration #  4     ecut=    50.00 Ry     beta=0.70
     Davidson diagonalization with overlap
     ethr =  7.77E-04,  avg # of iterations =  3.0

     total cpu time spent up to now is       39.5 secs

     total energy              =   -2242.49292381 Ry
     Harris-Foulkes estimate   =   -2242.53276050 Ry
     estimated scf accuracy    <       0.13599487 Ry

     iteration #  5     ecut=    50.00 Ry     beta=0.70
     Davidson diagonalization with overlap
     ethr =  2.83E-04,  avg # of iterations =  2.5

     total cpu time spent up to now is       46.4 secs

     total energy              =   -2242.51192296 Ry
     Harris-Foulkes estimate   =   -2242.51691691 Ry
     estimated scf accuracy    <       0.01725307 Ry

     iteration #  6     ecut=    50.00 Ry     beta=0.70
     Davidson diagonalization with overlap
     ethr =  3.59E-05,  avg # of iterations =  4.6

     total cpu time spent up to now is       54.9 secs

     total energy              =   -2242.51432846 Ry
     Harris-Foulkes estimate   =   -2242.51488213 Ry
     estimated scf accuracy    <       0.00144697 Ry

     iteration #  7     ecut=    50.00 Ry     beta=0.70
     Davidson diagonalization with overlap
     c_bands:  1 eigenvalues not converged
     ethr =  3.01E-06,  avg # of iterations =  6.9

     total cpu time spent up to now is       65.5 secs

     total energy              =   -2242.51463023 Ry
     Harris-Foulkes estimate   =   -2242.51466955 Ry
     estimated scf accuracy    <       0.00011678 Ry

     iteration #  8     ecut=    50.00 Ry     beta=0.70
     Davidson diagonalization with overlap
     ethr =  2.43E-07,  avg # of iterations =  2.9

     total cpu time spent up to now is       72.9 secs

     total energy              =   -2242.51464105 Ry
     Harris-Foulkes estimate   =   -2242.51466228 Ry
     estimated scf accuracy    <       0.00004524 Ry

     iteration #  9     ecut=    50.00 Ry     beta=0.70
     Davidson diagonalization with overlap
     ethr =  9.42E-08,  avg # of iterations =  3.0

     total cpu time spent up to now is       80.4 secs

     total energy              =   -2242.51464912 Ry
     Harris-Foulkes estimate   =   -2242.51465898 Ry
     estimated scf accuracy    <       0.00002804 Ry

     iteration # 10     ecut=    50.00 Ry     beta=0.70
     Davidson diagonalization with overlap
     ethr =  5.84E-08,  avg # of iterations =  2.8

     total cpu time spent up to now is       87.6 secs

     total energy              =   -2242.51465391 Ry
     Harris-Foulkes estimate   =   -2242.51465450 Ry
     estimated scf accuracy    <       0.00000150 Ry

     iteration # 11     ecut=    50.00 Ry     beta=0.70
     Davidson diagonalization with overlap
     ethr =  3.13E-09,  avg # of iterations =  3.0

     total cpu time spent up to now is       95.0 secs

     End of self-consistent calculation

          k = 0.0000 0.0000 0.0000 (  5289 PWs)   bands (ev):

   -33.5194 -33.5194 -33.2824 -33.2824 -33.0322 -33.0322 -32.8687 -32.8687
   -14.3217 -14.3217 -14.1618 -14.1618 -14.1146 -14.1146 -13.8514 -13.8514
   -10.4583 -10.4583 -10.3255 -10.3255 -10.1146 -10.1146  -9.8379  -9.8379
    -9.6035  -9.6035  -9.5722  -9.5722  -9.2990  -9.2990  -8.9175  -8.9175
     3.9824   3.9824   5.8990   5.8990   6.8201   6.8201   7.4448   7.4448
     9.1231   9.1231   9.6450   9.6450   9.9128   9.9128  10.9518  10.9518
    11.4946  11.4946  11.8919  11.8919  12.1768  12.1768  12.2942  12.2942
    12.4591  12.4591

          k = 0.0000 0.0000 0.3132 (  5279 PWs)   bands (ev):

   -33.5183 -33.5183 -33.2810 -33.2810 -33.0338 -33.0338 -32.8697 -32.8697
   -14.3113 -14.2853 -14.1801 -14.1424 -14.1037 -14.0882 -13.8990 -13.8923
   -10.4595 -10.4328 -10.2852 -10.2766 -10.1097 -10.1000  -9.8784  -9.8308
    -9.6865  -9.6589  -9.5717  -9.5659  -9.3116  -9.2720  -8.9223  -8.9216
     4.3770   4.3811   5.6232   5.6479   7.0230   7.0615   7.4494   7.4820
     8.6985   8.7031   9.2017   9.2240  10.1475  10.1920  11.0423  11.0545
    11.1994  11.2365  12.0367  12.0430  12.1612  12.2098  12.2517  12.2778
    12.3812  12.4446

          k = 0.0000 0.0000-0.6263 (  5252 PWs)   bands (ev):

   -33.5172 -33.5172 -33.2797 -33.2797 -33.0355 -33.0355 -32.8708 -32.8708
   -14.2780 -14.2780 -14.1675 -14.1675 -14.0270 -14.0270 -13.9804 -13.9804
   -10.4427 -10.4427 -10.1972 -10.1972 -10.1031 -10.1031  -9.8936  -9.8936
    -9.7450  -9.7450  -9.5652  -9.5652  -9.2817  -9.2817  -8.9263  -8.9263
     4.9930   4.9930   5.4664   5.4664   6.5761   6.5761   7.7912   7.7912
     8.3738   8.3738   8.9072   8.9072  10.4841  10.4841  10.9148  10.9148
    11.1598  11.1598  11.9694  11.9694  12.1249  12.1249  12.3015  12.3015
    12.4975  12.4975

          k = 0.0000 0.5773 0.0000 (  5253 PWs)   bands (ev):

   -33.5059 -33.5059 -33.2719 -33.2719 -33.0207 -33.0205 -32.8607 -32.8606
   -14.3307 -14.3135 -14.1868 -14.1814 -14.1114 -14.0875 -13.9515 -13.9312
   -10.4815 -10.4493 -10.3515 -10.3064 -10.0689 -10.0642  -9.9540  -9.9348
    -9.7886  -9.7539  -9.6732  -9.6584  -9.3571  -9.3455  -9.1183  -9.1128
     4.9270   5.0136   5.8165   5.8680   6.9793   7.0461   7.2972   7.4481
     9.4651   9.4803   9.8261   9.8841  10.2176  10.3411  10.5836  10.6171
    11.3131  11.3698  11.6556  11.6795  11.7495  11.8101  12.2305  12.3148
    12.3744  12.4103

          k = 0.0000 0.5773 0.3132 (  5250 PWs)   bands (ev):

   -33.5054 -33.5053 -33.2710 -33.2710 -33.0216 -33.0214 -32.8614 -32.8612
   -14.3183 -14.3017 -14.1926 -14.1603 -14.1209 -14.0794 -13.9763 -13.9569
   -10.4798 -10.4320 -10.3345 -10.2850 -10.0701 -10.0402  -9.9786  -9.9624
    -9.7893  -9.7706  -9.7040  -9.6636  -9.3575  -9.3095  -9.1201  -9.1037
     5.1700   5.2355   5.7736   5.8341   6.9177   6.9800   7.2930   7.4004
     9.3607   9.4060   9.7824   9.8174  10.3991  10.4958  10.6053  10.6394
    11.0965  11.1593  11.1895  11.2271  11.5708  11.6485  12.2848  12.3104
    12.3774  12.4162

          k = 0.0000 0.5773-0.6263 (  5272 PWs)   bands (ev):

   -33.5047 -33.5047 -33.2701 -33.2701 -33.0226 -33.0224 -32.8621 -32.8619
   -14.3041 -14.2834 -14.1888 -14.1744 -14.0899 -14.0582 -14.0191 -14.0005
   -10.4888 -10.4064 -10.2952 -10.2587 -10.0699 -10.0530 -10.0062  -9.9664
    -9.8073  -9.7936  -9.7035  -9.6897  -9.3580  -9.2853  -9.1054  -9.0977
     5.3858   5.4164   5.7371   5.8023   6.8791   6.9192   7.3415   7.4382
     9.1832   9.2565   9.8954   9.9391  10.3613  10.4066  10.6192  10.6269
    11.1384  11.2174  11.2386  11.3587  11.4181  11.4265  11.7042  11.7291
    12.7230  12.7836

          k = 0.0000-1.1547 0.0000 (  5284 PWs)   bands (ev):

   -33.4935 -33.4935 -33.2602 -33.2602 -33.0101 -33.0101 -32.8514 -32.8514
   -14.3206 -14.3206 -14.2164 -14.2164 -14.0899 -14.0899 -14.0351 -14.0351
   -10.4766 -10.4766 -10.3331 -10.3331 -10.1716 -10.1716 -10.0760 -10.0760
    -9.8136  -9.8136  -9.7136  -9.7136  -9.3729  -9.3729  -9.2395  -9.2395
     5.7948   5.7948   5.9425   5.9425   6.8495   6.8495   7.1194   7.1194
     9.3610   9.3610   9.5038   9.5038   9.6860   9.6860   9.8288   9.8288
    11.5144  11.5144  11.7311  11.7311  11.8554  11.8554  11.9561  11.9561
    12.1731  12.1731

          k = 0.0000-1.1547 0.3132 (  5252 PWs)   bands (ev):

   -33.4934 -33.4934 -33.2598 -33.2598 -33.0105 -33.0105 -32.8515 -32.8515
   -14.3277 -14.3224 -14.2136 -14.2026 -14.1123 -14.1034 -14.0343 -14.0295
   -10.4955 -10.4790 -10.3559 -10.3322 -10.1588 -10.1564 -10.0735 -10.0630
    -9.8253  -9.8183  -9.7153  -9.6940  -9.3756  -9.3438  -9.2415  -9.2086
     5.6759   5.7078   5.7360   5.7768   6.9812   7.0944   7.1931   7.2941
     9.1752   9.1974   9.2449   9.2721  10.1252  10.1503  10.1718  10.1842
    11.2504  11.2925  11.4468  11.4730  12.0716  12.1167  12.1661  12.2658
    12.3239  12.3613

          k = 0.0000-1.1547-0.6263 (  5272 PWs)   bands (ev):

   -33.4932 -33.4932 -33.2593 -33.2593 -33.0109 -33.0109 -32.8517 -32.8517
   -14.3288 -14.3288 -14.2013 -14.2013 -14.1217 -14.1217 -14.0319 -14.0319
   -10.4951 -10.4951 -10.3580 -10.3580 -10.1486 -10.1486 -10.0589 -10.0589
    -9.8098  -9.8098  -9.7146  -9.7146  -9.3435  -9.3435  -9.2113  -9.2113
     5.5561   5.5561   5.7174   5.7174   6.9494   6.9494   7.4680   7.4680
     9.0349   9.0349   9.3360   9.3360  10.4891  10.4891  10.5996  10.5996
    10.9447  10.9447  11.0347  11.0347  12.3288  12.3288  12.3481  12.3481
    13.0563  13.0563

          k = 0.2500 0.1443 0.0000 (  5279 PWs)   bands (ev):

   -33.5183 -33.5183 -33.2836 -33.2836 -33.0311 -33.0310 -32.8699 -32.8699
   -14.3232 -14.3203 -14.1700 -14.1637 -14.0875 -14.0831 -13.8722 -13.8711
   -10.4675 -10.4559 -10.3295 -10.3260 -10.0640 -10.0374  -9.8290  -9.8223
    -9.6629  -9.6498  -9.5968  -9.5926  -9.2648  -9.2587  -8.9763  -8.9732
     4.2360   4.2811   5.6151   5.6857   6.8906   6.9287   7.4730   7.5825
     9.1410   9.2305   9.5700   9.5917  10.0931  10.1862  10.9415  11.0100
    11.4707  11.4924  11.9401  11.9707  12.0354  12.1010  12.1855  12.2243
    12.6713  12.7101

          k = 0.2500 0.1443 0.3132 (  5261 PWs)   bands (ev):

   -33.5172 -33.5172 -33.2822 -33.2822 -33.0326 -33.0325 -32.8711 -32.8711
   -14.3076 -14.2810 -14.1738 -14.1294 -14.1032 -14.0780 -13.9156 -13.9057
   -10.4368 -10.4313 -10.2960 -10.2779 -10.0746 -10.0401  -9.8736  -9.8289
    -9.7173  -9.6883  -9.6135  -9.5955  -9.2668  -9.2320  -8.9810  -8.9772
     4.5541   4.5949   5.7169   5.7670   6.8286   6.8390   7.3718   7.4317
     8.9193   8.9370   9.2594   9.3209  10.3671  10.4198  10.8944  10.9171
    11.3531  11.4043  11.6832  11.6890  11.8901  11.9412  12.3645  12.3946
    12.4693  12.4815

          k = 0.2500 0.1443-0.6263 (  5254 PWs)   bands (ev):

   -33.5162 -33.5162 -33.2807 -33.2807 -33.0341 -33.0340 -32.8723 -32.8723
   -14.2662 -14.2635 -14.1645 -14.1632 -14.0399 -14.0292 -13.9893 -13.9823
   -10.4254 -10.4083 -10.2237 -10.2118 -10.0740 -10.0597  -9.8873  -9.8826
    -9.7734  -9.7519  -9.6069  -9.6034  -9.2475  -9.2424  -8.9783  -8.9770
     5.1080   5.1400   5.4320   5.4738   6.6909   6.7002   7.5723   7.5985
     8.5970   8.6380   9.2173   9.2562  10.5080  10.5143  10.8764  10.9023
    11.0515  11.0633  11.8588  11.8674  11.9523  11.9686  12.0794  12.0917
    12.3502  12.3530

          k = 0.2500 0.7217 0.0000 (  5270 PWs)   bands (ev):

   -33.5053 -33.5053 -33.2725 -33.2725 -33.0201 -33.0199 -32.8614 -32.8612
   -14.3316 -14.3133 -14.1876 -14.1799 -14.0930 -14.0732 -13.9685 -13.9477
   -10.4874 -10.4519 -10.3533 -10.3083 -10.0369 -10.0269  -9.9835  -9.9546
    -9.7751  -9.7336  -9.7186  -9.6708  -9.3025  -9.2937  -9.1666  -9.1573
     5.3267   5.3823   5.5177   5.5728   6.9166   6.9806   7.2710   7.3948
     9.5158   9.5649   9.7924   9.8191  10.1572  10.2021  10.3880  10.4531
    11.4109  11.4968  11.7289  11.7607  11.8081  11.8685  11.9885  12.0574
    12.1156  12.1491

          k = 0.2500 0.7217 0.3132 (  5250 PWs)   bands (ev):

   -33.5048 -33.5048 -33.2716 -33.2716 -33.0209 -33.0208 -32.8621 -32.8619
   -14.3172 -14.3012 -14.1883 -14.1601 -14.1104 -14.0733 -13.9872 -13.9700
   -10.4721 -10.4407 -10.3369 -10.2920 -10.0336 -10.0250  -9.9924  -9.9843
    -9.7706  -9.7560  -9.7195  -9.6975  -9.2999  -9.2746  -9.1661  -9.1392
     5.3556   5.4180   5.5665   5.6301   6.8804   6.9398   7.3737   7.4964
     9.5215   9.5641   9.8129   9.8470  10.2007  10.2781  10.5469  10.5973
    11.0112  11.0605  11.2140  11.2789  11.8873  11.9240  11.9691  12.0071
    12.3297  12.3631

          k = 0.2500 0.7217-0.6263 (  5252 PWs)   bands (ev):

   -33.5042 -33.5042 -33.2706 -33.2706 -33.0218 -33.0217 -32.8628 -32.8627
   -14.2964 -14.2790 -14.1865 -14.1749 -14.0941 -14.0628 -14.0236 -14.0026
   -10.4588 -10.4134 -10.3205 -10.2679 -10.0558 -10.0308 -10.0248  -9.9755
    -9.7854  -9.7641  -9.7427  -9.7091  -9.2899  -9.2583  -9.1622  -9.1242
     5.4924   5.5255   5.6010   5.6361   6.9151   6.9567   7.3387   7.4171
     9.4623   9.5112   9.7888   9.8473  10.5512  10.5732  10.6670  10.6826
    10.8687  10.8817  11.1063  11.1288  11.4367  11.4798  11.5094  11.5436
    12.8080  12.9116

          k = 0.2500-1.0104 0.0000 (  5254 PWs)   bands (ev):

   -33.4935 -33.4935 -33.2602 -33.2602 -33.0101 -33.0101 -32.8514 -32.8514
   -14.3202 -14.3200 -14.2176 -14.2166 -14.0871 -14.0858 -14.0340 -14.0335
   -10.4731 -10.4700 -10.3327 -10.3294 -10.1610 -10.1486 -10.0481 -10.0242
    -9.8595  -9.8430  -9.7295  -9.7285  -9.3896  -9.3834  -9.2596  -9.2567
     5.8132   5.8380   5.9269   5.9487   6.8756   6.9196   7.0694   7.1182
     9.6284   9.6471   9.7104   9.7199   9.8732   9.9366  10.0218  10.0931
    11.3739  11.3945  11.5619  11.5946  11.7925  11.8213  11.9824  12.0020
    12.2179  12.2675

          k = 0.2500-1.0104 0.3132 (  5260 PWs)   bands (ev):

   -33.4934 -33.4934 -33.2598 -33.2598 -33.0105 -33.0105 -32.8516 -32.8516
   -14.3263 -14.3210 -14.2143 -14.2044 -14.1076 -14.1002 -14.0332 -14.0289
   -10.4929 -10.4782 -10.3449 -10.3273 -10.1492 -10.1374 -10.0341 -10.0291
    -9.8582  -9.8443  -9.7474  -9.7121  -9.3927  -9.3487  -9.2622  -9.2218
     5.6887   5.7049   5.7516   5.7656   7.1057   7.1785   7.2437   7.3103
     9.4244   9.4748   9.5201   9.5719  10.2818  10.3088  10.3749  10.3966
    11.0490  11.0849  11.2312  11.2674  11.8268  11.8662  11.9227  11.9476
    12.4242  12.4393

          k = 0.2500-1.0104-0.6263 (  5260 PWs)   bands (ev):

   -33.4932 -33.4932 -33.2593 -33.2593 -33.0109 -33.0109 -32.8517 -32.8517
   -14.3272 -14.3271 -14.2005 -14.1988 -14.1219 -14.1192 -14.0317 -14.0307
   -10.4997 -10.4883 -10.3525 -10.3324 -10.1372 -10.1339 -10.0391 -10.0248
    -9.8479  -9.8393  -9.7372  -9.7304  -9.3709  -9.3518  -9.2260  -9.2139
     5.6520   5.6766   5.7921   5.8230   6.9584   6.9852   7.3409   7.3763
     9.3103   9.3584   9.5483   9.6194  10.6195  10.6498  10.6954  10.7215
    10.9275  10.9358  11.0279  11.0342  11.7141  11.7173  11.7780  11.7952
    12.8561  12.9147

          k = 0.2500-0.4330 0.0000 (  5251 PWs)   bands (ev):

   -33.5065 -33.5065 -33.2713 -33.2713 -33.0212 -33.0211 -32.8601 -32.8600
   -14.3298 -14.3129 -14.1864 -14.1825 -14.1269 -14.1010 -13.9361 -13.9176
   -10.4768 -10.4451 -10.3522 -10.3029 -10.0936 -10.0655  -9.9629  -9.9399
    -9.7834  -9.7312  -9.6736  -9.6436  -9.3937  -9.3823  -9.0883  -9.0811
     4.7343   4.8115   5.9444   5.9540   7.0193   7.1072   7.3321   7.4971
     9.3905   9.4553  10.0061  10.0172  10.1721  10.3705  10.8525  10.9145
    11.2532  11.3433  11.4727  11.5031  11.7615  11.7995  12.2765  12.2925
    12.4291  12.5746

          k = 0.2500-0.4330 0.3132 (  5259 PWs)   bands (ev):

   -33.5059 -33.5059 -33.2704 -33.2704 -33.0223 -33.0221 -32.8607 -32.8606
   -14.3179 -14.2974 -14.1996 -14.1702 -14.1167 -14.0834 -13.9684 -13.9512
   -10.4868 -10.4242 -10.3274 -10.2780 -10.0886 -10.0386  -9.9945  -9.9539
    -9.7972  -9.7571  -9.6970  -9.6653  -9.4003  -9.3401  -9.0839  -9.0701
     5.0055   5.0722   5.9036   5.9219   7.0148   7.0916   7.2843   7.3911
     9.2339   9.2562   9.8031   9.8670  10.3383  10.4150  10.9424  10.9620
    11.0492  11.1956  11.2376  11.2607  11.5635  11.7048  12.2540  12.3425
    12.5142  12.5383

          k = 0.2500-0.4330-0.6263 (  5266 PWs)   bands (ev):

   -33.5052 -33.5052 -33.2695 -33.2695 -33.0233 -33.0231 -32.8613 -32.8612
   -14.3107 -14.2880 -14.1910 -14.1745 -14.0861 -14.0536 -14.0155 -13.9975
   -10.5090 -10.4027 -10.2771 -10.2489 -10.0892 -10.0563  -9.9996  -9.9636
    -9.8171  -9.7961  -9.6909  -9.6781  -9.4028  -9.3073  -9.0781  -9.0697
     5.3141   5.3494   5.8865   5.9220   6.8701   6.9101   7.2785   7.3722
     9.0568   9.1309   9.7538   9.7884  10.5377  10.5715  10.6415  10.6974
    10.9726  11.1390  11.4332  11.4690  11.4989  11.6423  11.7133  11.7598
    12.5753  12.6190

          k =-0.5000-0.2887 0.0000 (  5254 PWs)   bands (ev):

   -33.5171 -33.5171 -33.2848 -33.2848 -33.0299 -33.0299 -32.8711 -32.8711
   -14.3216 -14.3216 -14.1693 -14.1693 -14.0527 -14.0527 -13.8978 -13.8978
   -10.4645 -10.4645 -10.3300 -10.3300  -9.9535  -9.9535  -9.8174  -9.8174
    -9.7466  -9.7466  -9.6100  -9.6100  -9.1980  -9.1980  -9.0581  -9.0581
     4.8121   4.8121   5.1031   5.1031   7.0643   7.0643   7.5463   7.5463
     9.3061   9.3061   9.5790   9.5790  10.4247  10.4247  10.8680  10.8680
    11.4931  11.4931  11.7554  11.7554  12.0963  12.0963  12.2643  12.2643
    12.5030  12.5030

          k =-0.5000-0.2887 0.3132 (  5256 PWs)   bands (ev):

   -33.5161 -33.5161 -33.2833 -33.2833 -33.0312 -33.0312 -32.8725 -32.8724
   -14.3021 -14.2825 -14.1653 -14.1360 -14.0802 -14.0562 -13.9408 -13.9236
   -10.4356 -10.4204 -10.2994 -10.2853  -9.9849  -9.9671  -9.8565  -9.8379
    -9.7730  -9.7590  -9.6539  -9.6125  -9.1974  -9.1826  -9.0633  -9.0478
     4.9598   5.0084   5.2690   5.3353   6.8858   6.9426   7.5188   7.5915
     9.2043   9.2388   9.4576   9.4665  10.4110  10.4232  10.8751  10.9435
    11.0816  11.0896  11.3195  11.3591  12.1230  12.1422  12.2485  12.2794
    12.5212  12.5385

          k =-0.5000-0.2887-0.6263 (  5256 PWs)   bands (ev):

   -33.5152 -33.5152 -33.2818 -33.2818 -33.0326 -33.0326 -32.8738 -32.8738
   -14.2499 -14.2499 -14.1613 -14.1613 -14.0430 -14.0430 -13.9909 -13.9909
   -10.3842 -10.3842 -10.2455 -10.2455 -10.0228 -10.0228  -9.8476  -9.8476
    -9.8189  -9.8189  -9.6425  -9.6425  -9.1834  -9.1834  -9.0536  -9.0536
     5.3167   5.3167   5.3834   5.3834   6.8425   6.8425   7.3821   7.3821
     9.0705   9.0705   9.4894   9.4894  10.4628  10.4628  10.7147  10.7147
    11.0775  11.0775  11.4776  11.4776  11.6986  11.6986  11.7352  11.7352
    12.8837  12.9213

          k =-0.5000 0.2887 0.0000 (  5253 PWs)   bands (ev):

   -33.5059 -33.5059 -33.2719 -33.2719 -33.0207 -33.0205 -32.8607 -32.8606
   -14.3308 -14.3127 -14.1878 -14.1805 -14.1107 -14.0905 -13.9496 -13.9315
   -10.4812 -10.4487 -10.3519 -10.3063 -10.0691 -10.0635  -9.9529  -9.9359
    -9.7883  -9.7527  -9.6756  -9.6596  -9.3584  -9.3444  -9.1182  -9.1117
     4.9255   5.0066   5.8311   5.8866   6.9455   7.0228   7.3073   7.4536
     9.4487   9.4808   9.8492   9.9051  10.2383  10.3616  10.5460  10.6038
    11.2527  11.3154  11.7064  11.7689  11.8813  11.9400  12.1583  12.2214
    12.3297  12.3936

          k =-0.5000 0.2887 0.3132 (  5250 PWs)   bands (ev):

   -33.5053 -33.5053 -33.2710 -33.2710 -33.0216 -33.0214 -32.8614 -32.8612
   -14.3190 -14.3014 -14.1917 -14.1678 -14.1093 -14.0852 -13.9705 -13.9617
   -10.4794 -10.4389 -10.3316 -10.2899 -10.0714 -10.0411  -9.9755  -9.9473
    -9.7925  -9.7559  -9.7047  -9.6776  -9.3624  -9.3167  -9.1150  -9.0994
     5.0363   5.0956   5.8140   5.8690   6.9777   7.0440   7.3827   7.5116
     9.3793   9.3834   9.9242   9.9478  10.3069  10.4056  10.5479  10.5931
    11.1079  11.1941  11.2792  11.2939  11.5803  11.6589  12.2155  12.2511
    12.4295  12.4779

          k =-0.5000 0.2887-0.6263 (  5272 PWs)   bands (ev):

   -33.5047 -33.5047 -33.2701 -33.2701 -33.0226 -33.0224 -32.8621 -32.8619
   -14.3037 -14.2839 -14.1886 -14.1742 -14.0906 -14.0585 -14.0190 -13.9999
   -10.4866 -10.4075 -10.2966 -10.2589 -10.0706 -10.0552 -10.0045  -9.9640
    -9.8048  -9.7899  -9.7081  -9.6924  -9.3574  -9.2852  -9.1060  -9.0972
     5.3523   5.4028   5.7856   5.8346   6.9069   6.9471   7.2734   7.3562
     9.1879   9.2670   9.9387   9.9805  10.3770  10.4383  10.6155  10.6246
    11.1631  11.2376  11.2630  11.3587  11.3947  11.4027  11.7064  11.7223
    12.6968  12.7348

          k =-0.5000-1.4434 0.0000 (  5252 PWs)   bands (ev):

   -33.4935 -33.4935 -33.2602 -33.2602 -33.0101 -33.0101 -32.8514 -32.8514
   -14.3196 -14.3196 -14.2177 -14.2177 -14.0829 -14.0829 -14.0323 -14.0323
   -10.4661 -10.4661 -10.3290 -10.3290 -10.1369 -10.1369  -9.9609  -9.9609
    -9.9241  -9.9241  -9.7456  -9.7456  -9.3998  -9.3998  -9.2776  -9.2776
     5.8573   5.8573   5.9336   5.9336   6.9418   6.9418   7.0698   7.0698
     9.9193   9.9193  10.0538  10.0538  10.1910  10.1910  10.3571  10.3571
    11.1696  11.1696  11.3122  11.3122  11.8527  11.8527  12.0848  12.0848
    12.4216  12.4216

          k =-0.5000-1.4434 0.3132 (  5244 PWs)   bands (ev):

   -33.4934 -33.4934 -33.2598 -33.2598 -33.0105 -33.0105 -32.8516 -32.8516
   -14.3251 -14.3197 -14.2151 -14.2033 -14.1057 -14.0954 -14.0334 -14.0281
   -10.4917 -10.4657 -10.3480 -10.3118 -10.1318 -10.1223  -9.9738  -9.9675
    -9.9218  -9.9041  -9.7696  -9.7354  -9.4030  -9.3692  -9.2711  -9.2389
     5.8167   5.8412   5.8973   5.9284   6.9605   6.9945   7.1124   7.1497
     9.8667   9.8950   9.9718   9.9904  10.3934  10.4161  10.5038  10.5116
    11.1153  11.1494  11.2305  11.2421  11.5516  11.5668  11.6396  11.6490
    12.3945  12.4071

          k =-0.5000-1.4434-0.6263 (  5288 PWs)   bands (ev):

   -33.4932 -33.4932 -33.2594 -33.2594 -33.0109 -33.0109 -32.8517 -32.8517
   -14.3255 -14.3255 -14.1979 -14.1979 -14.1194 -14.1194 -14.0304 -14.0304
   -10.4934 -10.4934 -10.3258 -10.3258 -10.1214 -10.1214  -9.9897  -9.9897
    -9.8924  -9.8924  -9.7547  -9.7547  -9.3803  -9.3803  -9.2280  -9.2280
     5.7893   5.7893   5.9046   5.9046   7.0116   7.0116   7.2047   7.2047
     9.7779   9.7779  10.0329  10.0329  10.4230  10.4230  10.6326  10.6326
    11.1362  11.1362  11.2487  11.2487  11.2776  11.2776  11.4299  11.4299
    12.6077  12.6077

          k = 0.0000-0.5773 0.3132 (  5250 PWs)   bands (ev):

   -33.5053 -33.5053 -33.2710 -33.2710 -33.0216 -33.0215 -32.8614 -32.8613
   -14.3171 -14.2964 -14.1950 -14.1689 -14.1081 -14.0792 -13.9779 -13.9633
   -10.4787 -10.4343 -10.3284 -10.2844 -10.0704 -10.0424  -9.9868  -9.9491
    -9.7988  -9.7610  -9.7041  -9.6800  -9.3612  -9.3138  -9.1123  -9.0965
     5.0872   5.1508   5.7756   5.8325   7.0377   7.0991   7.3263   7.4439
     9.3416   9.3507   9.8365   9.8713  10.3114  10.4177  10.6005  10.6304
    11.0882  11.1999  11.4102  11.4370  11.5709  11.6380  12.1836  12.2180
    12.4102  12.4625

          k =-0.2500-0.1443 0.3132 (  5261 PWs)   bands (ev):

   -33.5172 -33.5172 -33.2822 -33.2822 -33.0326 -33.0325 -32.8711 -32.8711
   -14.3058 -14.2868 -14.1702 -14.1444 -14.0878 -14.0732 -13.9187 -13.9077
   -10.4589 -10.4216 -10.2889 -10.2830 -10.0529 -10.0446  -9.8641  -9.8341
    -9.7063  -9.7017  -9.6193  -9.5925  -9.2707  -9.2450  -8.9761  -8.9696
     4.6191   4.6582   5.3637   5.4167   7.0606   7.0975   7.6130   7.6549
     8.8240   8.8453   9.4167   9.4184  10.2065  10.2099  10.9273  10.9521
    11.2425  11.2513  11.7477  11.7584  12.1742  12.2233  12.3372  12.3622
    12.4500  12.4761

          k =-0.2500-0.7217 0.3132 (  5250 PWs)   bands (ev):

   -33.5048 -33.5048 -33.2716 -33.2716 -33.0210 -33.0208 -32.8621 -32.8620
   -14.3151 -14.2951 -14.1915 -14.1620 -14.1086 -14.0696 -13.9935 -13.9715
   -10.4698 -10.4353 -10.3338 -10.2875 -10.0349 -10.0326  -9.9990  -9.9838
    -9.7751  -9.7560  -9.7248  -9.7016  -9.2967  -9.2704  -9.1650  -9.1371
     5.4013   5.4617   5.5769   5.6409   6.9014   6.9570   7.2779   7.3984
     9.4861   9.5476   9.8163   9.8451  10.1878  10.2485  10.5746  10.6402
    11.0769  11.1397  11.3041  11.3695  11.7918  11.8391  11.9180  12.0161
    12.3271  12.3472

          k =-0.2500 1.0104 0.3132 (  5260 PWs)   bands (ev):

   -33.4934 -33.4934 -33.2598 -33.2598 -33.0105 -33.0105 -32.8516 -32.8516
   -14.3266 -14.3211 -14.2144 -14.2015 -14.1105 -14.0985 -14.0345 -14.0286
   -10.4944 -10.4659 -10.3603 -10.3166 -10.1455 -10.1394 -10.0406 -10.0291
    -9.8591  -9.8540  -9.7352  -9.7162  -9.3858  -9.3633  -9.2511  -9.2255
     5.8094   5.8265   5.9180   5.9354   6.8309   6.9067   7.0621   7.1379
     9.4332   9.4616   9.5484   9.5787  10.2777  10.3026  10.3661  10.3939
    11.2307  11.3033  11.5545  11.6116  11.7101  11.7463  11.8255  11.8605
    12.1648  12.1930

          k =-0.2500 0.4330 0.3132 (  5259 PWs)   bands (ev):

   -33.5059 -33.5059 -33.2704 -33.2704 -33.0223 -33.0221 -32.8607 -32.8606
   -14.3200 -14.3019 -14.1964 -14.1692 -14.1177 -14.0889 -13.9620 -13.9493
   -10.4879 -10.4295 -10.3292 -10.2830 -10.0897 -10.0391  -9.9854  -9.9515
    -9.7929  -9.7546  -9.6905  -9.6621  -9.4014  -9.3416  -9.0869  -9.0744
     4.9602   5.0161   5.9251   5.9562   7.0245   7.0882   7.2920   7.4130
     9.3027   9.3222   9.8232   9.8844  10.3382  10.4191  10.7823  10.7975
    11.0968  11.1465  11.1708  11.2730  11.5455  11.6710  12.2972  12.3754
    12.4910  12.5147

          k = 0.5000-0.2887 0.3132 (  5250 PWs)   bands (ev):

   -33.5053 -33.5053 -33.2710 -33.2710 -33.0216 -33.0215 -32.8614 -32.8613
   -14.3160 -14.2961 -14.1959 -14.1624 -14.1191 -14.0764 -13.9814 -13.9585
   -10.4774 -10.4256 -10.3329 -10.2810 -10.0711 -10.0443  -9.9835  -9.9648
    -9.7895  -9.7700  -9.7152  -9.6693  -9.3548  -9.3076  -9.1175  -9.0997
     5.2036   5.2836   5.8016   5.8539   6.8820   6.9493   7.2377   7.3403
     9.3173   9.3629   9.7845   9.8165  10.4076  10.4946  10.7161  10.7645
    11.1208  11.1758  11.2728  11.2996  11.5959  11.6897  12.1980  12.2363
    12.3389  12.3863

     the Fermi energy is    10.9648 ev

!    total energy              =   -2242.51465421 Ry
     Harris-Foulkes estimate   =   -2242.51465426 Ry
     estimated scf accuracy    <       0.00000005 Ry

     total all-electron energy =    -90246.858048 Ry

     The total energy is the sum of the following terms:

     one-electron contribution =     -44.28734111 Ry
     hartree contribution      =      43.20586931 Ry
     xc contribution           =    -254.89899859 Ry
     ewald contribution        =    -238.45252823 Ry
     one-center paw contrib.   =   -1748.07852077 Ry
     smearing contrib. (-TS)   =      -0.00313482 Ry

     convergence has been achieved in  11 iterations

     Writing output data file 2335.save
 
     init_run     :      3.31s CPU      5.01s WALL (       1 calls)
     electrons    :     76.05s CPU     88.53s WALL (       1 calls)

     Called by init_run:
     wfcinit      :      2.86s CPU      4.07s WALL (       1 calls)
     potinit      :      0.24s CPU      0.34s WALL (       1 calls)

     Called by electrons:
     c_bands      :     63.06s CPU     72.77s WALL (      11 calls)
     sum_band     :      9.32s CPU     11.15s WALL (      11 calls)
     v_of_rho     :      0.04s CPU      0.05s WALL (      12 calls)
     newd         :      1.03s CPU      1.09s WALL (      12 calls)
     PAW_pot      :      2.17s CPU      2.42s WALL (      12 calls)
     mix_rho      :      0.11s CPU      0.16s WALL (      11 calls)

     Called by c_bands:
     init_us_2    :      0.15s CPU      0.16s WALL (     828 calls)
     cegterg      :     59.91s CPU     69.20s WALL (     396 calls)

     Called by sum_band:
     sum_band:bec :      1.78s CPU      1.87s WALL (     396 calls)
     addusdens    :      0.29s CPU      0.32s WALL (      11 calls)

     Called by *egterg:
     h_psi        :     31.39s CPU     37.26s WALL (    1846 calls)
     s_psi        :      2.47s CPU      2.60s WALL (    1846 calls)
     g_psi        :      0.07s CPU      0.07s WALL (    1414 calls)
     cdiaghg      :     15.93s CPU     17.71s WALL (    1810 calls)

     Called by h_psi:
     h_psi:pot    :     31.19s CPU     37.06s WALL (    1846 calls)
     h_psi:calbec :      1.59s CPU      1.81s WALL (    1846 calls)
     vloc_psi     :     27.17s CPU     32.78s WALL (    1846 calls)
     add_vuspsi   :      2.41s CPU      2.45s WALL (    1846 calls)

     General routines
     calbec       :      2.65s CPU      3.10s WALL (    2242 calls)
     fft          :      0.16s CPU      0.30s WALL (     224 calls)
     fftw         :     31.20s CPU     38.14s WALL (  294340 calls)
     davcio       :      0.00s CPU      0.01s WALL (      36 calls)
 
     Parallel routines
     fft_scatter  :     25.58s CPU     32.27s WALL (  294564 calls)
 
     PWSCF        :  1m20.32s CPU     2m42.31s WALL

 
   This run was terminated on:  11: 2:31  16Nov2022            

=------------------------------------------------------------------------------=
   JOB DONE.
=------------------------------------------------------------------------------=
Removing 2335 from /home/shaharpit/tmp
