
     Program PWSCF v.6.1 (svn rev. 13369) starts on 30Nov2022 at 13:42:31 

     This program is part of the open-source Quantum ESPRESSO suite
     for quantum simulation of materials; please cite
         "P. Giannozzi et al., J. Phys.:Condens. Matter 21 395502 (2009);
          URL http://www.quantum-espresso.org", 
     in publications or presentations arising from this work. More details at
     http://www.quantum-espresso.org/quote

     Parallel version (MPI), running on     4 processors
     R & G space division:  proc/nbgrp/npool/nimage =       4
     Reading input from ./hcp_25_1.1.in
Warning: card &IONS ignored
Warning: card 	ION_DYNAMICS='BFGS', ignored
Warning: card / ignored
Warning: card &CELL ignored
Warning: card / ignored

     Current dimensions of program PWSCF are:
     Max number of different atomic species (ntypx) = 10
     Max number of k-points (npk) =  40000
     Max angular momentum in pseudopotentials (lmaxx) =  3
               file Gd.rel-pbe-spdn-kjpaw_psl.1.0.0.UPF: wavefunction(s)  5P 5P renormalized
               file H.pbe-kjpaw_psl.0.1.UPF: wavefunction(s)  1S renormalized

     Subspace diagonalization in iterative solution of the eigenvalue problem:
     a serial algorithm will be used

 
     Parallelization info
     --------------------
     sticks:   dense  smooth     PW     G-vecs:    dense   smooth      PW
     Min         339     339    105                11569    11569    1959
     Max         340     340    107                11571    11571    1960
     Sum        1357    1357    423                46279    46279    7837
 


     bravais-lattice index     =            0
     lattice parameter (alat)  =      14.0996  a.u.
     unit-cell volume          =     968.9289 (a.u.)^3
     number of atoms/cell      =            6
     number of atomic types    =            2
     number of electrons       =        46.00
     number of Kohn-Sham states=           56
     kinetic-energy cutoff     =      50.0000  Ry
     charge density cutoff     =     200.0000  Ry
     convergence threshold     =      1.0E-06
     mixing beta               =       0.7000
     number of iterations used =            8  plain     mixing
     Exchange-correlation      =  SLA  PW   PBX  PBC ( 1  4  3  4 0 0)
     Non magnetic calculation with spin-orbit


     celldm(1)=  14.099625  celldm(2)=   0.000000  celldm(3)=   0.000000
     celldm(4)=   0.000000  celldm(5)=   0.000000  celldm(6)=   0.000000

     crystal axes: (cart. coord. in units of alat)
               a(1) = (   1.000000   0.000000   0.000000 )  
               a(2) = (  -0.250000   0.433013   0.000000 )  
               a(3) = (   0.000000   0.000000   0.798303 )  

     reciprocal axes: (cart. coord. in units 2 pi/alat)
               b(1) = (  1.000000  0.577349  0.000000 )  
               b(2) = (  0.000000  2.309397  0.000000 )  
               b(3) = (  0.000000  0.000000  1.252657 )  


     PseudoPot. # 1 for Gd read from file:
     /home/shaharpit/MeamGdH/dft/qe_potentials/Gd.rel-pbe-spdn-kjpaw_psl.1.0.0.UPF
     MD5 check sum: cf50ec46d1536b4a0251694df1946a53
     Pseudo is Projector augmented-wave + core cor, Zval = 11.0
     Generated using "atomic" code by A. Dal Corso  v.6.2.2
     Shape of augmentation charge: PSQ
     Using radial grid of 1263 points, 10 beta functions with: 
                l(1) =   0
                l(2) =   0
                l(3) =   1
                l(4) =   1
                l(5) =   1
                l(6) =   1
                l(7) =   2
                l(8) =   2
                l(9) =   2
               l(10) =   2
     Q(r) pseudized with 0 coefficients 


     PseudoPot. # 2 for  H read from file:
     /home/shaharpit/MeamGdH/dft/qe_potentials/H.pbe-kjpaw_psl.0.1.UPF
     MD5 check sum: fbb168fef676c0aaadbafd73f5b1efa8
     Pseudo is Projector augmented-wave, Zval =  1.0
     Generated using "atomic" code by A. Dal Corso  v.5.0.2 svn rev. 9415
     Shape of augmentation charge: PSQ
     Using radial grid of  929 points,  2 beta functions with: 
                l(1) =   0
                l(2) =   0
     Q(r) pseudized with 0 coefficients 


     atomic species   valence    mass     pseudopotential
        Gd            11.00   157.25000     Gd( 1.00)
        H              1.00     1.00794      H( 1.00)

     No symmetry found



   Cartesian axes

     site n.     atom                  positions (alat units)
         1           Gd  tau(   1) = (   0.2499750   0.1443234   0.5987274  )
         2           Gd  tau(   2) = (   0.7499750   0.1443234   0.5987274  )
         3           Gd  tau(   3) = (   0.0000250   0.2886901   0.1995758  )
         4           Gd  tau(   4) = (   0.5000250   0.2886901   0.1995758  )
         5           H   tau(   5) = (   0.2603500   0.1351868   0.7733962  )
         6           H   tau(   6) = (   0.7141750   0.1153981   0.7679677  )

     number of k points=    36  gaussian smearing, width (Ry)=  0.0100
                       cart. coord. in units 2pi/alat
        k(    1) = (   0.0000000   0.0000000   0.0000000), wk =   0.0156250
        k(    2) = (   0.0000000   0.0000000   0.3131642), wk =   0.0312500
        k(    3) = (   0.0000000   0.0000000  -0.6263284), wk =   0.0156250
        k(    4) = (   0.0000000   0.5773493   0.0000000), wk =   0.0312500
        k(    5) = (   0.0000000   0.5773493   0.3131642), wk =   0.0312500
        k(    6) = (   0.0000000   0.5773493  -0.6263284), wk =   0.0312500
        k(    7) = (   0.0000000  -1.1546985   0.0000000), wk =   0.0156250
        k(    8) = (   0.0000000  -1.1546985   0.3131642), wk =   0.0312500
        k(    9) = (   0.0000000  -1.1546985  -0.6263284), wk =   0.0156250
        k(   10) = (   0.2500000   0.1443373   0.0000000), wk =   0.0312500
        k(   11) = (   0.2500000   0.1443373   0.3131642), wk =   0.0312500
        k(   12) = (   0.2500000   0.1443373  -0.6263284), wk =   0.0312500
        k(   13) = (   0.2500000   0.7216866   0.0000000), wk =   0.0312500
        k(   14) = (   0.2500000   0.7216866   0.3131642), wk =   0.0312500
        k(   15) = (   0.2500000   0.7216866  -0.6263284), wk =   0.0312500
        k(   16) = (   0.2500000  -1.0103612   0.0000000), wk =   0.0312500
        k(   17) = (   0.2500000  -1.0103612   0.3131642), wk =   0.0312500
        k(   18) = (   0.2500000  -1.0103612  -0.6263284), wk =   0.0312500
        k(   19) = (   0.2500000  -0.4330119   0.0000000), wk =   0.0312500
        k(   20) = (   0.2500000  -0.4330119   0.3131642), wk =   0.0312500
        k(   21) = (   0.2500000  -0.4330119  -0.6263284), wk =   0.0312500
        k(   22) = (  -0.5000000  -0.2886746   0.0000000), wk =   0.0156250
        k(   23) = (  -0.5000000  -0.2886746   0.3131642), wk =   0.0312500
        k(   24) = (  -0.5000000  -0.2886746  -0.6263284), wk =   0.0156250
        k(   25) = (  -0.5000000   0.2886746   0.0000000), wk =   0.0312500
        k(   26) = (  -0.5000000   0.2886746   0.3131642), wk =   0.0312500
        k(   27) = (  -0.5000000   0.2886746  -0.6263284), wk =   0.0312500
        k(   28) = (  -0.5000000  -1.4433732   0.0000000), wk =   0.0156250
        k(   29) = (  -0.5000000  -1.4433732   0.3131642), wk =   0.0312500
        k(   30) = (  -0.5000000  -1.4433732  -0.6263284), wk =   0.0156250
        k(   31) = (   0.0000000  -0.5773493   0.3131642), wk =   0.0312500
        k(   32) = (  -0.2500000  -0.1443373   0.3131642), wk =   0.0312500
        k(   33) = (  -0.2500000  -0.7216866   0.3131642), wk =   0.0312500
        k(   34) = (  -0.2500000   1.0103612   0.3131642), wk =   0.0312500
        k(   35) = (  -0.2500000   0.4330119   0.3131642), wk =   0.0312500
        k(   36) = (   0.5000000  -0.2886746   0.3131642), wk =   0.0312500

     Dense  grid:    46279 G-vectors     FFT dimensions: (  64,  32,  54)

     Estimated max dynamical RAM per process >     136.72MB

     Estimated total allocated dynamical RAM >     546.86MB

     Initial potential from superposition of free atoms

     starting charge   45.92379, renormalised to   46.00000
     Starting wfc are  108 randomized atomic wfcs
     Checking if some PAW data can be deallocated... 

     total cpu time spent up to now is       10.2 secs

     per-process dynamical memory:   161.3 Mb

     Self-consistent Calculation

     iteration #  1     ecut=    50.00 Ry     beta=0.70
     Davidson diagonalization with overlap
     ethr =  1.00E-02,  avg # of iterations =  2.0

     total cpu time spent up to now is       25.4 secs

     total energy              =   -2239.86617193 Ry
     Harris-Foulkes estimate   =   -2240.37614689 Ry
     estimated scf accuracy    <       0.70768390 Ry

     iteration #  2     ecut=    50.00 Ry     beta=0.70
     Davidson diagonalization with overlap
     ethr =  1.54E-03,  avg # of iterations =  4.6

     total cpu time spent up to now is       47.0 secs

     total energy              =   -2239.48786330 Ry
     Harris-Foulkes estimate   =   -2240.78787389 Ry
     estimated scf accuracy    <       4.21605460 Ry

     iteration #  3     ecut=    50.00 Ry     beta=0.70
     Davidson diagonalization with overlap
     ethr =  1.54E-03,  avg # of iterations =  4.4

     total cpu time spent up to now is       66.8 secs

     total energy              =   -2240.13019809 Ry
     Harris-Foulkes estimate   =   -2240.23180112 Ry
     estimated scf accuracy    <       0.34084016 Ry

     iteration #  4     ecut=    50.00 Ry     beta=0.70
     Davidson diagonalization with overlap
     ethr =  7.41E-04,  avg # of iterations =  3.0

     total cpu time spent up to now is       82.1 secs

     total energy              =   -2240.16193816 Ry
     Harris-Foulkes estimate   =   -2240.20186099 Ry
     estimated scf accuracy    <       0.12534003 Ry

     iteration #  5     ecut=    50.00 Ry     beta=0.70
     Davidson diagonalization with overlap
     ethr =  2.72E-04,  avg # of iterations =  3.0

     total cpu time spent up to now is       97.1 secs

     total energy              =   -2240.17874750 Ry
     Harris-Foulkes estimate   =   -2240.18805550 Ry
     estimated scf accuracy    <       0.03565931 Ry

     iteration #  6     ecut=    50.00 Ry     beta=0.70
     Davidson diagonalization with overlap
     ethr =  7.75E-05,  avg # of iterations =  2.6

     total cpu time spent up to now is      112.5 secs

     total energy              =   -2240.18311431 Ry
     Harris-Foulkes estimate   =   -2240.18358497 Ry
     estimated scf accuracy    <       0.00135961 Ry

     iteration #  7     ecut=    50.00 Ry     beta=0.70
     Davidson diagonalization with overlap
     ethr =  2.96E-06,  avg # of iterations =  7.0

     total cpu time spent up to now is      133.9 secs

     total energy              =   -2240.18340816 Ry
     Harris-Foulkes estimate   =   -2240.18356943 Ry
     estimated scf accuracy    <       0.00036069 Ry

     iteration #  8     ecut=    50.00 Ry     beta=0.70
     Davidson diagonalization with overlap
     ethr =  7.84E-07,  avg # of iterations =  4.0

     total cpu time spent up to now is      151.3 secs

     total energy              =   -2240.18345172 Ry
     Harris-Foulkes estimate   =   -2240.18358558 Ry
     estimated scf accuracy    <       0.00044124 Ry

     iteration #  9     ecut=    50.00 Ry     beta=0.70
     Davidson diagonalization with overlap
     ethr =  7.84E-07,  avg # of iterations =  2.5

     total cpu time spent up to now is      166.7 secs

     total energy              =   -2240.18350811 Ry
     Harris-Foulkes estimate   =   -2240.18351598 Ry
     estimated scf accuracy    <       0.00001763 Ry

     iteration # 10     ecut=    50.00 Ry     beta=0.70
     Davidson diagonalization with overlap
     ethr =  3.83E-08,  avg # of iterations =  3.7

     total cpu time spent up to now is      182.0 secs

     total energy              =   -2240.18351326 Ry
     Harris-Foulkes estimate   =   -2240.18351414 Ry
     estimated scf accuracy    <       0.00000186 Ry

     iteration # 11     ecut=    50.00 Ry     beta=0.70
     Davidson diagonalization with overlap
     ethr =  4.05E-09,  avg # of iterations =  3.2

     total cpu time spent up to now is      249.1 secs

     End of self-consistent calculation

          k = 0.0000 0.0000 0.0000 (  5761 PWs)   bands (ev):

   -35.1935 -35.1935 -35.1303 -35.1303 -34.4785 -34.4785 -34.4110 -34.4110
   -15.9268 -15.9268 -15.8407 -15.8407 -15.5281 -15.5281 -15.4140 -15.4140
   -11.8245 -11.8245 -11.7651 -11.7651 -11.7159 -11.7159 -11.4925 -11.4925
   -11.3785 -11.3785 -11.3163 -11.3163 -10.8083 -10.8083 -10.5324 -10.5324
     3.9479   3.9479   5.4889   5.4889   6.7934   6.7934   8.1792   8.1792
     8.2923   8.2923   8.7474   8.7474   9.0298   9.0298  10.1704  10.1704
    10.4999  10.4999  10.6770  10.6771  10.8702  10.8702  11.0125  11.0126

          k = 0.0000 0.0000 0.3132 (  5777 PWs)   bands (ev):

   -35.1932 -35.1932 -35.1301 -35.1301 -34.4789 -34.4789 -34.4112 -34.4112
   -15.9285 -15.9228 -15.8253 -15.8249 -15.5352 -15.5292 -15.4281 -15.4270
   -11.8200 -11.8047 -11.7481 -11.7381 -11.7020 -11.6671 -11.5317 -11.4674
   -11.3917 -11.3857 -11.3755 -11.3735 -10.8108 -10.7963 -10.5345 -10.5344
     4.3582   4.3650   5.5107   5.5143   6.7944   6.7991   7.6616   7.6664
     8.1797   8.1889   8.4508   8.4521   9.1437   9.1650  10.0144  10.0549
    10.3303  10.3358  10.7356  10.7624  10.9108  10.9195  10.9524  10.9754

          k = 0.0000 0.0000-0.6263 (  5758 PWs)   bands (ev):

   -35.1928 -35.1928 -35.1299 -35.1299 -34.4794 -34.4794 -34.4115 -34.4115
   -15.9248 -15.9248 -15.8078 -15.8078 -15.5369 -15.5369 -15.4420 -15.4420
   -11.8216 -11.8216 -11.6822 -11.6822 -11.6271 -11.6271 -11.5314 -11.5314
   -11.4764 -11.4764 -11.3745 -11.3745 -10.7985 -10.7985 -10.5365 -10.5365
     5.0851   5.0851   5.5537   5.5537   6.3260   6.3260   7.1544   7.1544
     7.8410   7.8410   8.6371   8.6371   9.2749   9.2749  10.1094  10.1094
    10.1635  10.1636  10.6878  10.6878  10.8302  10.8302  10.8732  10.8732

          k = 0.0000 0.5773 0.0000 (  5800 PWs)   bands (ev):

   -35.1838 -35.1838 -35.1257 -35.1257 -34.4697 -34.4696 -34.4064 -34.4064
   -15.9327 -15.9289 -15.8714 -15.8633 -15.5340 -15.5324 -15.4555 -15.4538
   -11.8344 -11.8090 -11.7748 -11.7432 -11.6880 -11.6676 -11.5652 -11.5487
   -11.5265 -11.4968 -11.4023 -11.3916 -10.8383 -10.8270 -10.6772 -10.6756
     4.7365   4.7926   5.4954   5.5651   7.4040   7.5652   8.4209   8.5125
     8.6105   8.6572   8.9463   8.9575   9.1243   9.1975   9.4638   9.5336
    10.0326  10.0978  10.3571  10.3995  10.5955  10.6289  10.9436  11.0331

          k = 0.0000 0.5773 0.3132 (  5776 PWs)   bands (ev):

   -35.1836 -35.1836 -35.1255 -35.1255 -34.4699 -34.4698 -34.4066 -34.4065
   -15.9321 -15.9270 -15.8656 -15.8574 -15.5390 -15.5357 -15.4615 -15.4603
   -11.8401 -11.7906 -11.7662 -11.7206 -11.6870 -11.6372 -11.5826 -11.5709
   -11.5165 -11.5007 -11.4421 -11.4030 -10.8321 -10.8168 -10.6786 -10.6725
     4.9528   5.0008   5.5673   5.6180   7.4680   7.6124   8.1965   8.2509
     8.4675   8.5146   8.8335   8.9406   9.2952   9.4063   9.4235   9.4332
     9.7712   9.8438  10.0366  10.0608  10.3026  10.3732  10.9176  10.9569

          k = 0.0000 0.5773-0.6263 (  5782 PWs)   bands (ev):

   -35.1834 -35.1834 -35.1254 -35.1254 -34.4701 -34.4700 -34.4068 -34.4067
   -15.9317 -15.9250 -15.8561 -15.8520 -15.5431 -15.5408 -15.4693 -15.4667
   -11.8603 -11.7527 -11.7179 -11.7024 -11.6727 -11.6378 -11.6123 -11.5695
   -11.5430 -11.5035 -11.4573 -11.4417 -10.8317 -10.8051 -10.6720 -10.6707
     5.3726   5.3796   5.6298   5.6506   7.1534   7.1777   7.9142   7.9758
     8.3142   8.3589   8.8414   8.9775   9.4708   9.5028   9.5397   9.5886
     9.7788   9.8786   9.9284   9.9632  10.2682  10.3346  10.4057  10.4409

          k = 0.0000-1.1547 0.0000 (  5796 PWs)   bands (ev):

   -35.1757 -35.1757 -35.1193 -35.1193 -34.4621 -34.4621 -34.4004 -34.4004
   -15.9438 -15.9438 -15.8912 -15.8912 -15.5502 -15.5502 -15.4857 -15.4857
   -11.8072 -11.8072 -11.7548 -11.7548 -11.7316 -11.7316 -11.6943 -11.6943
   -11.5037 -11.5037 -11.4694 -11.4694 -10.8470 -10.8470 -10.7776 -10.7776
     5.4244   5.4244   5.5519   5.5519   8.0944   8.0944   8.2524   8.2524
     8.2706   8.2706   8.3856   8.3856   8.7996   8.7996   8.9249   8.9249
    10.2268  10.2268  10.4140  10.4140  10.6298  10.6298  10.6982  10.6982

          k = 0.0000-1.1547 0.3132 (  5768 PWs)   bands (ev):

   -35.1756 -35.1756 -35.1193 -35.1193 -34.4621 -34.4621 -34.4004 -34.4004
   -15.9456 -15.9437 -15.8929 -15.8897 -15.5549 -15.5510 -15.4889 -15.4862
   -11.8399 -11.8261 -11.7934 -11.7752 -11.7142 -11.7083 -11.6598 -11.6441
   -11.5269 -11.5255 -11.4619 -11.4436 -10.8447 -10.8356 -10.7758 -10.7671
     5.4385   5.4468   5.5443   5.5487   7.8633   7.8878   7.9997   8.0200
     8.3076   8.3214   8.3529   8.3646   9.1460   9.1596   9.1764   9.1857
    10.0827  10.1096  10.2500  10.2710  10.9332  10.9446  10.9775  10.9837

          k = 0.0000-1.1547-0.6263 (  5800 PWs)   bands (ev):

   -35.1756 -35.1756 -35.1192 -35.1192 -34.4622 -34.4622 -34.4005 -34.4005
   -15.9453 -15.9453 -15.8917 -15.8917 -15.5553 -15.5553 -15.4896 -15.4896
   -11.8482 -11.8482 -11.8041 -11.8041 -11.6990 -11.6990 -11.6377 -11.6377
   -11.5034 -11.5034 -11.4656 -11.4656 -10.8324 -10.8324 -10.7662 -10.7662
     5.4758   5.4758   5.5580   5.5580   7.5799   7.5799   7.6369   7.6369
     8.5298   8.5298   8.5982   8.5982   9.3001   9.3001   9.3725   9.3725
    10.2038  10.2038  10.3405  10.3405  10.8439  10.8439  10.8619  10.8619

          k = 0.2500 0.1443 0.0000 (  5751 PWs)   bands (ev):

   -35.1919 -35.1919 -35.1320 -35.1320 -34.4771 -34.4771 -34.4124 -34.4124
   -15.9198 -15.9169 -15.8488 -15.8454 -15.5182 -15.5167 -15.4252 -15.4242
   -11.8314 -11.8273 -11.7818 -11.7611 -11.6820 -11.6459 -11.4744 -11.4655
   -11.4251 -11.4208 -11.3384 -11.3378 -10.7757 -10.7733 -10.5763 -10.5750
     4.1701   4.2039   5.2804   5.3222   6.9748   7.0721   7.9597   8.0312
     8.4545   8.4805   8.9255   8.9751   9.1435   9.1705  10.0138  10.0418
    10.2419  10.2547  10.7223  10.7326  10.8306  10.8421  10.9572  10.9702

          k = 0.2500 0.1443 0.3132 (  5768 PWs)   bands (ev):

   -35.1916 -35.1916 -35.1318 -35.1318 -34.4775 -34.4775 -34.4127 -34.4127
   -15.9182 -15.9107 -15.8359 -15.8336 -15.5252 -15.5220 -15.4377 -15.4341
   -11.8015 -11.7966 -11.7467 -11.7348 -11.6880 -11.6256 -11.5247 -11.4647
   -11.4352 -11.4292 -11.3914 -11.3748 -10.7753 -10.7616 -10.5783 -10.5773
     4.5227   4.5538   5.4311   5.4631   7.0178   7.1055   7.6938   7.7452
     8.0776   8.1007   8.5350   8.5372   9.2594   9.2926   9.9309   9.9340
    10.2101  10.2272  10.4747  10.4777  10.6505  10.7035  11.0627  11.0728

          k = 0.2500 0.1443-0.6263 (  5782 PWs)   bands (ev):

   -35.1912 -35.1912 -35.1315 -35.1315 -34.4779 -34.4779 -34.4130 -34.4130
   -15.9123 -15.9107 -15.8212 -15.8194 -15.5307 -15.5287 -15.4490 -15.4473
   -11.7959 -11.7832 -11.6710 -11.6577 -11.6441 -11.6384 -11.5434 -11.5341
   -11.4900 -11.4688 -11.4056 -11.4011 -10.7669 -10.7650 -10.5773 -10.5769
     5.1851   5.1890   5.5404   5.5547   6.5763   6.6029   7.3045   7.3443
     7.7926   7.8204   8.5547   8.6347   9.3122   9.3250   9.8699   9.8769
    10.0892  10.1024  10.5636  10.5837  10.5891  10.6113  10.8749  10.9064

          k = 0.2500 0.7217 0.0000 (  5780 PWs)   bands (ev):

   -35.1829 -35.1829 -35.1266 -35.1266 -34.4689 -34.4688 -34.4072 -34.4071
   -15.9274 -15.9229 -15.8758 -15.8693 -15.5270 -15.5261 -15.4628 -15.4613
   -11.8370 -11.8102 -11.7811 -11.7468 -11.6510 -11.6348 -11.6115 -11.5846
   -11.4905 -11.4522 -11.4463 -11.4108 -10.7870 -10.7816 -10.7238 -10.7182
     5.0558   5.0907   5.2345   5.2735   7.7482   7.8265   7.9404   8.0280
     8.8002   8.8073   8.9201   8.9331   9.1554   9.1794   9.2462   9.2882
    10.1407  10.2012  10.4580  10.4961  10.5304  10.5754  10.7092  10.7797

          k = 0.2500 0.7217 0.3132 (  5788 PWs)   bands (ev):

   -35.1828 -35.1827 -35.1264 -35.1264 -34.4691 -34.4690 -34.4074 -34.4073
   -15.9242 -15.9202 -15.8715 -15.8660 -15.5330 -15.5308 -15.4672 -15.4664
   -11.8243 -11.8032 -11.7642 -11.7332 -11.6470 -11.6364 -11.6048 -11.5885
   -11.5059 -11.4758 -11.4515 -11.4297 -10.7833 -10.7757 -10.7209 -10.7138
     5.1888   5.2197   5.3799   5.4054   7.7592   7.8253   7.9242   8.0387
     8.5167   8.5544   8.6430   8.6672   9.2386   9.2740   9.5042   9.5383
     9.8340   9.8686   9.9296   9.9650  10.6022  10.6382  10.7017  10.7296

          k = 0.2500 0.7217-0.6263 (  5776 PWs)   bands (ev):

   -35.1826 -35.1826 -35.1262 -35.1262 -34.4693 -34.4692 -34.4076 -34.4075
   -15.9206 -15.9162 -15.8670 -15.8619 -15.5394 -15.5361 -15.4730 -15.4714
   -11.8142 -11.7721 -11.7454 -11.7109 -11.6503 -11.6398 -11.6303 -11.5752
   -11.5095 -11.5055 -11.4732 -11.4512 -10.7788 -10.7678 -10.7184 -10.7080
     5.4114   5.4186   5.5923   5.6017   7.5611   7.5833   7.6277   7.6456
     8.4032   8.4506   8.6500   8.7079   9.3720   9.4048   9.5094   9.5232
     9.9269   9.9676  10.0010  10.0225  10.1870  10.2096  10.2407  10.2573

          k = 0.2500-1.0104 0.0000 (  5830 PWs)   bands (ev):

   -35.1757 -35.1757 -35.1193 -35.1193 -34.4621 -34.4621 -34.4004 -34.4004
   -15.9434 -15.9433 -15.8907 -15.8906 -15.5495 -15.5494 -15.4853 -15.4852
   -11.8140 -11.8031 -11.7527 -11.7357 -11.7300 -11.7068 -11.6969 -11.6567
   -11.5282 -11.5227 -11.4844 -11.4795 -10.8542 -10.8488 -10.7922 -10.7875
     5.4284   5.4339   5.5612   5.5649   8.1812   8.2273   8.3412   8.3849
     8.5029   8.5235   8.5687   8.5851   8.8893   8.9354   8.9774   9.0141
    10.0912  10.1217  10.2739  10.3320  10.5523  10.5800  10.6882  10.6971

          k = 0.2500-1.0104 0.3132 (  5808 PWs)   bands (ev):

   -35.1756 -35.1756 -35.1193 -35.1193 -34.4621 -34.4621 -34.4004 -34.4004
   -15.9449 -15.9431 -15.8923 -15.8892 -15.5541 -15.5504 -15.4884 -15.4858
   -11.8460 -11.8337 -11.7696 -11.7492 -11.7060 -11.6943 -11.6497 -11.6398
   -11.5463 -11.5263 -11.4903 -11.4588 -10.8508 -10.8369 -10.7896 -10.7771
     5.4614   5.4699   5.5760   5.5835   7.9397   7.9685   8.1459   8.1739
     8.5132   8.5258   8.5564   8.5704   9.3328   9.3668   9.3934   9.4204
     9.7735   9.8228   9.9685  10.0172  10.5577  10.5656  10.6452  10.6758

          k = 0.2500-1.0104-0.6263 (  5768 PWs)   bands (ev):

   -35.1756 -35.1756 -35.1192 -35.1192 -34.4622 -34.4622 -34.4005 -34.4005
   -15.9447 -15.9446 -15.8909 -15.8907 -15.5548 -15.5547 -15.4892 -15.4891
   -11.8612 -11.8552 -11.7764 -11.7684 -11.6916 -11.6854 -11.6363 -11.6256
   -11.5310 -11.5276 -11.4792 -11.4717 -10.8427 -10.8322 -10.7800 -10.7713
     5.5030   5.5144   5.5778   5.5895   7.8034   7.8104   7.8617   7.8670
     8.6975   8.7460   8.7864   8.8392   9.3982   9.4279   9.4635   9.4845
     9.9906  10.0390  10.0763  10.1178  10.3020  10.3220  10.3481  10.3566

          k = 0.2500-0.4330 0.0000 (  5792 PWs)   bands (ev):

   -35.1847 -35.1847 -35.1248 -35.1248 -34.4704 -34.4703 -34.4057 -34.4056
   -15.9371 -15.9339 -15.8674 -15.8589 -15.5395 -15.5387 -15.4489 -15.4473
   -11.8331 -11.8099 -11.7763 -11.7248 -11.7134 -11.6599 -11.5878 -11.5615
   -11.5195 -11.4870 -11.3943 -11.3721 -10.8679 -10.8550 -10.6531 -10.6494
     4.5713   4.6267   5.6084   5.6902   7.3069   7.4704   8.4872   8.5077
     8.8113   8.9737   8.9822   9.0199   9.0824   9.1334   9.6204   9.6432
     9.9640  10.0444  10.2788  10.3138  10.6412  10.6937  10.9236  10.9525

          k = 0.2500-0.4330 0.3132 (  5790 PWs)   bands (ev):

   -35.1845 -35.1845 -35.1247 -35.1247 -34.4707 -34.4705 -34.4058 -34.4058
   -15.9384 -15.9327 -15.8578 -15.8511 -15.5430 -15.5418 -15.4571 -15.4558
   -11.8548 -11.7826 -11.7502 -11.7192 -11.6988 -11.6318 -11.5977 -11.5568
   -11.5260 -11.4953 -11.4379 -11.4047 -10.8619 -10.8442 -10.6509 -10.6457
     4.9043   4.9433   5.6265   5.6771   7.2843   7.4141   8.1430   8.1942
     8.6040   8.6568   8.9419   8.9929   9.0666   9.1801   9.7712   9.8119
     9.8484   9.8996  10.0861  10.1131  10.2512  10.3566  10.9272  11.0090

          k = 0.2500-0.4330-0.6263 (  5812 PWs)   bands (ev):

   -35.1843 -35.1843 -35.1245 -35.1245 -34.4709 -34.4708 -34.4060 -34.4059
   -15.9401 -15.9322 -15.8478 -15.8440 -15.5466 -15.5450 -15.4658 -15.4627
   -11.8859 -11.7474 -11.7104 -11.6902 -11.6765 -11.6381 -11.6038 -11.5662
   -11.5466 -11.5165 -11.4518 -11.4315 -10.8622 -10.8286 -10.6497 -10.6453
     5.3466   5.3552   5.6444   5.6610   7.0068   7.0390   7.8313   7.9165
     8.5509   8.5896   9.0130   9.1318   9.3453   9.4316   9.5837   9.5894
     9.6128   9.6990  10.0239  10.1779  10.3169  10.3705  10.4431  10.4781

          k =-0.5000-0.2887 0.0000 (  5780 PWs)   bands (ev):

   -35.1901 -35.1901 -35.1338 -35.1338 -34.4757 -34.4757 -34.4139 -34.4139
   -15.9079 -15.9079 -15.8555 -15.8555 -15.5035 -15.5035 -15.4389 -15.4389
   -11.8329 -11.8329 -11.7775 -11.7775 -11.5710 -11.5710 -11.5158 -11.5158
   -11.4295 -11.4295 -11.3720 -11.3720 -10.7077 -10.7077 -10.6520 -10.6520
     4.6759   4.6759   4.8578   4.8578   7.4354   7.4354   7.6360   7.6360
     8.9308   8.9308   9.0808   9.0808   9.3203   9.3203   9.5239   9.5239
    10.2568  10.2568  10.5280  10.5280  10.8783  10.8783  10.9349  10.9349

          k =-0.5000-0.2887 0.3132 (  5750 PWs)   bands (ev):

   -35.1898 -35.1898 -35.1335 -35.1335 -34.4760 -34.4760 -34.4142 -34.4142
   -15.9025 -15.8984 -15.8479 -15.8464 -15.5138 -15.5104 -15.4490 -15.4452
   -11.8025 -11.7900 -11.7454 -11.7342 -11.5933 -11.5676 -11.5387 -11.5203
   -11.4764 -11.4373 -11.4261 -11.3876 -10.7077 -10.7018 -10.6535 -10.6474
     4.9146   4.9329   5.1350   5.1509   7.3474   7.4555   7.6262   7.7693
     8.2419   8.2451   8.3846   8.4144   9.5236   9.5905   9.6975   9.7392
     9.8801   9.8832  10.1745  10.2077  10.7926  10.8302  10.9487  10.9830

          k =-0.5000-0.2887-0.6263 (  5788 PWs)   bands (ev):

   -35.1896 -35.1896 -35.1332 -35.1332 -34.4763 -34.4763 -34.4146 -34.4146
   -15.8927 -15.8927 -15.8384 -15.8384 -15.5212 -15.5212 -15.4556 -15.4556
   -11.7412 -11.7412 -11.6821 -11.6821 -11.6219 -11.6219 -11.5598 -11.5598
   -11.4832 -11.4832 -11.4319 -11.4319 -10.7019 -10.7019 -10.6492 -10.6492
     5.2953   5.2953   5.5345   5.5345   7.1332   7.1332   7.2450   7.2450
     7.9538   7.9538   8.3026   8.3026   9.4586   9.4586   9.5487   9.5487
    10.1570  10.1570  10.2896  10.2896  10.4201  10.4201  10.4775  10.4775

          k =-0.5000 0.2887 0.0000 (  5800 PWs)   bands (ev):

   -35.1838 -35.1838 -35.1257 -35.1257 -34.4697 -34.4696 -34.4064 -34.4064
   -15.9327 -15.9285 -15.8714 -15.8638 -15.5339 -15.5331 -15.4551 -15.4536
   -11.8343 -11.8106 -11.7743 -11.7431 -11.6848 -11.6650 -11.5663 -11.5514
   -11.5294 -11.4994 -11.4004 -11.3890 -10.8375 -10.8261 -10.6785 -10.6760
     4.7312   4.7859   5.4861   5.5599   7.4524   7.6160   8.3697   8.4647
     8.6448   8.6874   8.9998   9.0170   9.1210   9.1925   9.3979   9.4533
    10.0060  10.0642  10.4328  10.4675  10.6440  10.6992  10.8721  10.9165

          k =-0.5000 0.2887 0.3132 (  5776 PWs)   bands (ev):

   -35.1836 -35.1836 -35.1255 -35.1255 -34.4699 -34.4698 -34.4066 -34.4065
   -15.9326 -15.9270 -15.8632 -15.8592 -15.5383 -15.5364 -15.4625 -15.4593
   -11.8417 -11.7991 -11.7537 -11.7341 -11.6857 -11.6319 -11.5739 -11.5596
   -11.5339 -11.4923 -11.4384 -11.4121 -10.8332 -10.8194 -10.6769 -10.6718
     5.0004   5.0347   5.5108   5.5562   7.4941   7.6160   8.1816   8.2075
     8.4316   8.5004   8.7420   8.8378   9.2564   9.3586   9.6992   9.7503
     9.7864   9.8485   9.9688   9.9851  10.3157  10.3903  10.9067  10.9607

          k =-0.5000 0.2887-0.6263 (  5782 PWs)   bands (ev):

   -35.1834 -35.1834 -35.1254 -35.1254 -34.4701 -34.4700 -34.4068 -34.4067
   -15.9316 -15.9252 -15.8560 -15.8520 -15.5434 -15.5406 -15.4693 -15.4666
   -11.8604 -11.7558 -11.7168 -11.7012 -11.6687 -11.6396 -11.6130 -11.5693
   -11.5436 -11.5032 -11.4582 -11.4413 -10.8309 -10.8043 -10.6729 -10.6714
     5.3817   5.3894   5.6032   5.6232   7.1632   7.1899   7.9426   8.0046
     8.3070   8.3537   8.9013   9.0410   9.4444   9.4667   9.5366   9.5734
     9.7591   9.8719   9.9264   9.9885  10.2272  10.2910  10.4134  10.4528

          k =-0.5000-1.4434 0.0000 (  5820 PWs)   bands (ev):

   -35.1757 -35.1757 -35.1193 -35.1193 -34.4621 -34.4621 -34.4004 -34.4004
   -15.9429 -15.9429 -15.8901 -15.8901 -15.5487 -15.5487 -15.4847 -15.4847
   -11.8076 -11.8076 -11.7460 -11.7460 -11.6991 -11.6991 -11.6471 -11.6471
   -11.5527 -11.5527 -11.4969 -11.4969 -10.8553 -10.8553 -10.8029 -10.8029
     5.4375   5.4375   5.5746   5.5746   8.3660   8.3660   8.5218   8.5218
     8.6788   8.6788   8.7323   8.7323   9.1066   9.1066   9.1881   9.1881
     9.9238   9.9238  10.1099  10.1099  10.5750  10.5750  10.7274  10.7274

          k =-0.5000-1.4434 0.3132 (  5802 PWs)   bands (ev):

   -35.1756 -35.1756 -35.1193 -35.1193 -34.4621 -34.4621 -34.4004 -34.4004
   -15.9443 -15.9425 -15.8917 -15.8885 -15.5534 -15.5495 -15.4881 -15.4853
   -11.8488 -11.8302 -11.7567 -11.7234 -11.7007 -11.6761 -11.6446 -11.6087
   -11.5758 -11.5450 -11.5129 -11.4789 -10.8538 -10.8411 -10.8011 -10.7894
     5.4789   5.4930   5.5848   5.5986   8.1927   8.2576   8.3262   8.3913
     8.8017   8.8529   8.9145   8.9632   9.2311   9.2526   9.3494   9.3790
     9.7905   9.8274   9.8755   9.9004  10.2813  10.2924  10.3492  10.3572

          k =-0.5000-1.4434-0.6263 (  5776 PWs)   bands (ev):

   -35.1756 -35.1756 -35.1192 -35.1192 -34.4622 -34.4622 -34.4005 -34.4005
   -15.9440 -15.9440 -15.8899 -15.8899 -15.5543 -15.5543 -15.4887 -15.4887
   -11.8631 -11.8631 -11.7403 -11.7403 -11.6794 -11.6794 -11.6198 -11.6198
   -11.5615 -11.5615 -11.4875 -11.4875 -10.8430 -10.8430 -10.7847 -10.7847
     5.5424   5.5424   5.6093   5.6093   8.1295   8.1295   8.2031   8.2031
     8.9257   8.9257   9.1331   9.1331   9.3959   9.3959   9.5101   9.5101
     9.7459   9.7459   9.8489   9.8489   9.9439   9.9439  10.0350  10.0350

          k = 0.0000-0.5773 0.3132 (  5776 PWs)   bands (ev):

   -35.1836 -35.1836 -35.1255 -35.1255 -34.4699 -34.4698 -34.4066 -34.4065
   -15.9323 -15.9266 -15.8627 -15.8582 -15.5383 -15.5368 -15.4629 -15.4605
   -11.8400 -11.7932 -11.7490 -11.7279 -11.6883 -11.6344 -11.5799 -11.5596
   -11.5343 -11.4935 -11.4438 -11.4189 -10.8334 -10.8190 -10.6746 -10.6693
     5.0492   5.0787   5.5436   5.5873   7.3430   7.4414   8.1766   8.1938
     8.3975   8.4681   8.7366   8.8431   9.2784   9.3824   9.7254   9.7763
     9.8141   9.8362  10.0837  10.1168  10.3076  10.3775  10.9091  10.9684

          k =-0.2500-0.1443 0.3132 (  5768 PWs)   bands (ev):

   -35.1916 -35.1916 -35.1318 -35.1318 -34.4775 -34.4775 -34.4127 -34.4127
   -15.9165 -15.9138 -15.8356 -15.8324 -15.5264 -15.5196 -15.4370 -15.4360
   -11.8218 -11.7908 -11.7441 -11.7370 -11.6531 -11.6492 -11.5021 -11.4724
   -11.4341 -11.4218 -11.4095 -11.3761 -10.7769 -10.7672 -10.5760 -10.5736
     4.5821   4.6042   5.3466   5.3751   6.9656   7.0493   7.7903   7.8357
     8.1765   8.2307   8.3205   8.3411   9.3736   9.4078   9.8350   9.8433
    10.1699  10.2051  10.4859  10.5190  10.9083  10.9589  11.0622  11.0732

          k =-0.2500-0.7217 0.3132 (  5788 PWs)   bands (ev):

   -35.1827 -35.1827 -35.1264 -35.1264 -34.4691 -34.4690 -34.4074 -34.4073
   -15.9237 -15.9193 -15.8711 -15.8654 -15.5335 -15.5314 -15.4676 -15.4668
   -11.8209 -11.7977 -11.7613 -11.7260 -11.6490 -11.6400 -11.6059 -11.5912
   -11.5109 -11.4815 -11.4546 -11.4321 -10.7819 -10.7737 -10.7203 -10.7127
     5.2269   5.2504   5.4140   5.4410   7.6077   7.6769   7.8698   7.9883
     8.5482   8.5814   8.6365   8.6597   9.2594   9.3080   9.5228   9.5589
     9.9042   9.9540  10.0048  10.0622  10.5461  10.5922  10.6461  10.7337

          k =-0.2500 1.0104 0.3132 (  5808 PWs)   bands (ev):

   -35.1756 -35.1756 -35.1193 -35.1193 -34.4621 -34.4621 -34.4004 -34.4004
   -15.9451 -15.9431 -15.8923 -15.8890 -15.5542 -15.5501 -15.4886 -15.4858
   -11.8452 -11.8240 -11.7823 -11.7524 -11.7011 -11.6959 -11.6438 -11.6348
   -11.5495 -11.5426 -11.4778 -11.4614 -10.8481 -10.8408 -10.7861 -10.7789
     5.4525   5.4710   5.5513   5.5681   8.1076   8.1278   8.1909   8.2202
     8.5404   8.5524   8.5891   8.6031   9.0697   9.0827   9.1667   9.1788
    10.0440  10.1021  10.2962  10.4001  10.4697  10.5467  10.5960  10.6340

          k =-0.2500 0.4330 0.3132 (  5790 PWs)   bands (ev):

   -35.1845 -35.1845 -35.1247 -35.1247 -34.4706 -34.4705 -34.4058 -34.4058
   -15.9388 -15.9330 -15.8586 -15.8520 -15.5430 -15.5412 -15.4568 -15.4548
   -11.8553 -11.7892 -11.7562 -11.7211 -11.7005 -11.6297 -11.5959 -11.5550
   -11.5217 -11.4955 -11.4294 -11.4000 -10.8622 -10.8450 -10.6525 -10.6480
     4.8539   4.8969   5.6249   5.6744   7.3630   7.5050   8.1932   8.2388
     8.6181   8.6625   8.9467   8.9891   9.0639   9.1791   9.7154   9.7448
     9.7816   9.9001  10.0031  10.0289  10.2347  10.3398  10.9775  11.0398

          k = 0.5000-0.2887 0.3132 (  5776 PWs)   bands (ev):

   -35.1836 -35.1836 -35.1255 -35.1255 -34.4699 -34.4698 -34.4066 -34.4065
   -15.9315 -15.9266 -15.8649 -15.8569 -15.5394 -15.5365 -15.4619 -15.4606
   -11.8386 -11.7836 -11.7628 -11.7179 -11.6823 -11.6381 -11.5878 -11.5755
   -11.5180 -11.5044 -11.4503 -11.4048 -10.8306 -10.8150 -10.6783 -10.6713
     4.9991   5.0432   5.5619   5.6156   7.4295   7.5674   8.1484   8.2099
     8.3850   8.4427   8.8730   8.9792   9.2938   9.4088   9.4813   9.5124
     9.8486   9.9085  10.0918  10.1151  10.3176  10.3874  10.8483  10.8990

     the Fermi energy is     9.3900 ev

!    total energy              =   -2240.18351363 Ry
     Harris-Foulkes estimate   =   -2240.18351386 Ry
     estimated scf accuracy    <       0.00000028 Ry

     total all-electron energy =    -90244.526916 Ry

     The total energy is the sum of the following terms:

     one-electron contribution =     -62.12395051 Ry
     hartree contribution      =      48.15556024 Ry
     xc contribution           =    -253.08838290 Ry
     ewald contribution        =    -225.04927170 Ry
     one-center paw contrib.   =   -1748.07336404 Ry
     smearing contrib. (-TS)   =      -0.00410473 Ry

     convergence has been achieved in  11 iterations

     Forces acting on atoms (cartesian axes, Ry/au):

     atom    1 type  1   force =    -0.03651076    0.03362668   -0.67115322
     atom    2 type  1   force =     0.13403594    0.10645036   -0.64748190
     atom    3 type  1   force =     0.00100737    0.00328902   -0.01856974
     atom    4 type  1   force =    -0.00311644   -0.00242327   -0.03533407
     atom    5 type  2   force =     0.03541139   -0.03498088    0.69690735
     atom    6 type  2   force =    -0.13082749   -0.10596192    0.67563158

     Total force =     1.369686     Total SCF correction =     0.001632

     Writing output data file 2407.save

mkdir fail: [122] Disk quota exceeded

 %%%%%%%%%%%%%%%%%%%%%%%%%%%%%%%%%%%%%%%%%%%%%%%%%%%%%%%%%%%%%%%%%%%%%%%%%%%%%%
     Error in routine create_directory (1):
     unable to create directory /home/shaharpit/tmp/2407.save/K00017
 %%%%%%%%%%%%%%%%%%%%%%%%%%%%%%%%%%%%%%%%%%%%%%%%%%%%%%%%%%%%%%%%%%%%%%%%%%%%%%

     stopping ...

 %%%%%%%%%%%%%%%%%%%%%%%%%%%%%%%%%%%%%%%%%%%%%%%%%%%%%%%%%%%%%%%%%%%%%%%%%%%%%%
     Error in routine create_directory (1):
     unable to create directory /home/shaharpit/tmp/2407.save/K00017
 %%%%%%%%%%%%%%%%%%%%%%%%%%%%%%%%%%%%%%%%%%%%%%%%%%%%%%%%%%%%%%%%%%%%%%%%%%%%%%

     stopping ...

 %%%%%%%%%%%%%%%%%%%%%%%%%%%%%%%%%%%%%%%%%%%%%%%%%%%%%%%%%%%%%%%%%%%%%%%%%%%%%%
     Error in routine create_directory (1):
     unable to create directory /home/shaharpit/tmp/2407.save/K00017
 %%%%%%%%%%%%%%%%%%%%%%%%%%%%%%%%%%%%%%%%%%%%%%%%%%%%%%%%%%%%%%%%%%%%%%%%%%%%%%

     stopping ...

 %%%%%%%%%%%%%%%%%%%%%%%%%%%%%%%%%%%%%%%%%%%%%%%%%%%%%%%%%%%%%%%%%%%%%%%%%%%%%%
     Error in routine create_directory (1):
     unable to create directory /home/shaharpit/tmp/2407.save/K00017
 %%%%%%%%%%%%%%%%%%%%%%%%%%%%%%%%%%%%%%%%%%%%%%%%%%%%%%%%%%%%%%%%%%%%%%%%%%%%%%

     stopping ...
application called MPI_Abort(MPI_COMM_WORLD, 1) - process 2
Removing 2407 from /home/shaharpit/tmp
