
     Program PWSCF v.6.1 (svn rev. 13369) starts on 30Nov2022 at 13:42:31 

     This program is part of the open-source Quantum ESPRESSO suite
     for quantum simulation of materials; please cite
         "P. Giannozzi et al., J. Phys.:Condens. Matter 21 395502 (2009);
          URL http://www.quantum-espresso.org", 
     in publications or presentations arising from this work. More details at
     http://www.quantum-espresso.org/quote

     Parallel version (MPI), running on     4 processors
     R & G space division:  proc/nbgrp/npool/nimage =       4
     Reading input from ./hcp_125_1.1.in
Warning: card &IONS ignored
Warning: card 	ION_DYNAMICS='BFGS', ignored
Warning: card / ignored
Warning: card &CELL ignored
Warning: card / ignored

     Current dimensions of program PWSCF are:
     Max number of different atomic species (ntypx) = 10
     Max number of k-points (npk) =  40000
     Max angular momentum in pseudopotentials (lmaxx) =  3
               file Gd.rel-pbe-spdn-kjpaw_psl.1.0.0.UPF: wavefunction(s)  5P 5P renormalized
               file H.pbe-kjpaw_psl.0.1.UPF: wavefunction(s)  1S renormalized

     Subspace diagonalization in iterative solution of the eigenvalue problem:
     a serial algorithm will be used

 
     Parallelization info
     --------------------
     sticks:   dense  smooth     PW     G-vecs:    dense   smooth      PW
     Min         339     339    105                11569    11569    1959
     Max         340     340    107                11571    11571    1960
     Sum        1357    1357    423                46279    46279    7837
 


     bravais-lattice index     =            0
     lattice parameter (alat)  =      14.0996  a.u.
     unit-cell volume          =     968.9289 (a.u.)^3
     number of atoms/cell      =           14
     number of atomic types    =            2
     number of electrons       =        54.00
     number of Kohn-Sham states=           64
     kinetic-energy cutoff     =      50.0000  Ry
     charge density cutoff     =     200.0000  Ry
     convergence threshold     =      1.0E-06
     mixing beta               =       0.7000
     number of iterations used =            8  plain     mixing
     Exchange-correlation      =  SLA  PW   PBX  PBC ( 1  4  3  4 0 0)
     Non magnetic calculation with spin-orbit


     celldm(1)=  14.099625  celldm(2)=   0.000000  celldm(3)=   0.000000
     celldm(4)=   0.000000  celldm(5)=   0.000000  celldm(6)=   0.000000

     crystal axes: (cart. coord. in units of alat)
               a(1) = (   1.000000   0.000000   0.000000 )  
               a(2) = (  -0.250000   0.433013   0.000000 )  
               a(3) = (   0.000000   0.000000   0.798303 )  

     reciprocal axes: (cart. coord. in units 2 pi/alat)
               b(1) = (  1.000000  0.577349  0.000000 )  
               b(2) = (  0.000000  2.309397  0.000000 )  
               b(3) = (  0.000000  0.000000  1.252657 )  


     PseudoPot. # 1 for Gd read from file:
     /home/shaharpit/MeamGdH/dft/qe_potentials/Gd.rel-pbe-spdn-kjpaw_psl.1.0.0.UPF
     MD5 check sum: cf50ec46d1536b4a0251694df1946a53
     Pseudo is Projector augmented-wave + core cor, Zval = 11.0
     Generated using "atomic" code by A. Dal Corso  v.6.2.2
     Shape of augmentation charge: PSQ
     Using radial grid of 1263 points, 10 beta functions with: 
                l(1) =   0
                l(2) =   0
                l(3) =   1
                l(4) =   1
                l(5) =   1
                l(6) =   1
                l(7) =   2
                l(8) =   2
                l(9) =   2
               l(10) =   2
     Q(r) pseudized with 0 coefficients 


     PseudoPot. # 2 for  H read from file:
     /home/shaharpit/MeamGdH/dft/qe_potentials/H.pbe-kjpaw_psl.0.1.UPF
     MD5 check sum: fbb168fef676c0aaadbafd73f5b1efa8
     Pseudo is Projector augmented-wave, Zval =  1.0
     Generated using "atomic" code by A. Dal Corso  v.5.0.2 svn rev. 9415
     Shape of augmentation charge: PSQ
     Using radial grid of  929 points,  2 beta functions with: 
                l(1) =   0
                l(2) =   0
     Q(r) pseudized with 0 coefficients 


     atomic species   valence    mass     pseudopotential
        Gd            11.00   157.25000     Gd( 1.00)
        H              1.00     1.00794      H( 1.00)

     No symmetry found



   Cartesian axes

     site n.     atom                  positions (alat units)
         1           Gd  tau(   1) = (   0.2499750   0.1443234   0.5987274  )
         2           Gd  tau(   2) = (   0.7499750   0.1443234   0.5987274  )
         3           Gd  tau(   3) = (   0.0000250   0.2886901   0.1995758  )
         4           Gd  tau(   4) = (   0.5000250   0.2886901   0.1995758  )
         5           H   tau(   5) = (   0.2603500   0.1351868   0.7733962  )
         6           H   tau(   6) = (   0.7141750   0.1153981   0.7679677  )
         7           H   tau(   7) = (   0.7241000   0.3952547   0.4070548  )
         8           H   tau(   8) = (   0.2676250   0.4208458   0.3987525  )
         9           H   tau(   9) = (  -0.0020500   0.4258254   0.2957713  )
        10           H   tau(  10) = (   0.7594250   0.0214342   0.2383733  )
        11           H   tau(  11) = (  -0.0314500   0.1687886   0.6524532  )
        12           H   tau(  12) = (   0.5425750   0.1586994   0.6760032  )
        13           H   tau(  13) = (   0.7480250   0.3541617   0.0562804  )
        14           H   tau(  14) = (   0.2942750   0.3585784   0.0582761  )

     number of k points=    36  gaussian smearing, width (Ry)=  0.0100
                       cart. coord. in units 2pi/alat
        k(    1) = (   0.0000000   0.0000000   0.0000000), wk =   0.0156250
        k(    2) = (   0.0000000   0.0000000   0.3131642), wk =   0.0312500
        k(    3) = (   0.0000000   0.0000000  -0.6263284), wk =   0.0156250
        k(    4) = (   0.0000000   0.5773493   0.0000000), wk =   0.0312500
        k(    5) = (   0.0000000   0.5773493   0.3131642), wk =   0.0312500
        k(    6) = (   0.0000000   0.5773493  -0.6263284), wk =   0.0312500
        k(    7) = (   0.0000000  -1.1546985   0.0000000), wk =   0.0156250
        k(    8) = (   0.0000000  -1.1546985   0.3131642), wk =   0.0312500
        k(    9) = (   0.0000000  -1.1546985  -0.6263284), wk =   0.0156250
        k(   10) = (   0.2500000   0.1443373   0.0000000), wk =   0.0312500
        k(   11) = (   0.2500000   0.1443373   0.3131642), wk =   0.0312500
        k(   12) = (   0.2500000   0.1443373  -0.6263284), wk =   0.0312500
        k(   13) = (   0.2500000   0.7216866   0.0000000), wk =   0.0312500
        k(   14) = (   0.2500000   0.7216866   0.3131642), wk =   0.0312500
        k(   15) = (   0.2500000   0.7216866  -0.6263284), wk =   0.0312500
        k(   16) = (   0.2500000  -1.0103612   0.0000000), wk =   0.0312500
        k(   17) = (   0.2500000  -1.0103612   0.3131642), wk =   0.0312500
        k(   18) = (   0.2500000  -1.0103612  -0.6263284), wk =   0.0312500
        k(   19) = (   0.2500000  -0.4330119   0.0000000), wk =   0.0312500
        k(   20) = (   0.2500000  -0.4330119   0.3131642), wk =   0.0312500
        k(   21) = (   0.2500000  -0.4330119  -0.6263284), wk =   0.0312500
        k(   22) = (  -0.5000000  -0.2886746   0.0000000), wk =   0.0156250
        k(   23) = (  -0.5000000  -0.2886746   0.3131642), wk =   0.0312500
        k(   24) = (  -0.5000000  -0.2886746  -0.6263284), wk =   0.0156250
        k(   25) = (  -0.5000000   0.2886746   0.0000000), wk =   0.0312500
        k(   26) = (  -0.5000000   0.2886746   0.3131642), wk =   0.0312500
        k(   27) = (  -0.5000000   0.2886746  -0.6263284), wk =   0.0312500
        k(   28) = (  -0.5000000  -1.4433732   0.0000000), wk =   0.0156250
        k(   29) = (  -0.5000000  -1.4433732   0.3131642), wk =   0.0312500
        k(   30) = (  -0.5000000  -1.4433732  -0.6263284), wk =   0.0156250
        k(   31) = (   0.0000000  -0.5773493   0.3131642), wk =   0.0312500
        k(   32) = (  -0.2500000  -0.1443373   0.3131642), wk =   0.0312500
        k(   33) = (  -0.2500000  -0.7216866   0.3131642), wk =   0.0312500
        k(   34) = (  -0.2500000   1.0103612   0.3131642), wk =   0.0312500
        k(   35) = (  -0.2500000   0.4330119   0.3131642), wk =   0.0312500
        k(   36) = (   0.5000000  -0.2886746   0.3131642), wk =   0.0312500

     Dense  grid:    46279 G-vectors     FFT dimensions: (  64,  32,  54)

     Estimated max dynamical RAM per process >     153.49MB

     Estimated total allocated dynamical RAM >     613.95MB

     Initial potential from superposition of free atoms

     starting charge   53.92372, renormalised to   54.00000
     Starting wfc are  124 randomized atomic wfcs
     Checking if some PAW data can be deallocated... 

     total cpu time spent up to now is       12.8 secs

     per-process dynamical memory:   177.5 Mb

     Self-consistent Calculation

     iteration #  1     ecut=    50.00 Ry     beta=0.70
     Davidson diagonalization with overlap
     ethr =  1.00E-02,  avg # of iterations =  2.0

     total cpu time spent up to now is       30.5 secs

     total energy              =   -2248.51376998 Ry
     Harris-Foulkes estimate   =   -2249.18352669 Ry
     estimated scf accuracy    <       1.16907332 Ry

     iteration #  2     ecut=    50.00 Ry     beta=0.70
     Davidson diagonalization with overlap
     ethr =  2.16E-03,  avg # of iterations =  3.6

     total cpu time spent up to now is       51.4 secs

     total energy              =   -2248.34828450 Ry
     Harris-Foulkes estimate   =   -2249.04116616 Ry
     estimated scf accuracy    <       1.35482427 Ry

     iteration #  3     ecut=    50.00 Ry     beta=0.70
     Davidson diagonalization with overlap
     ethr =  2.16E-03,  avg # of iterations =  3.9

     total cpu time spent up to now is       72.0 secs

     total energy              =   -2248.69991455 Ry
     Harris-Foulkes estimate   =   -2248.95845908 Ry
     estimated scf accuracy    <       0.80279052 Ry

     iteration #  4     ecut=    50.00 Ry     beta=0.70
     Davidson diagonalization with overlap
     ethr =  1.49E-03,  avg # of iterations =  2.9

     total cpu time spent up to now is       91.5 secs

     total energy              =   -2248.79780612 Ry
     Harris-Foulkes estimate   =   -2248.81718887 Ry
     estimated scf accuracy    <       0.04869520 Ry

     iteration #  5     ecut=    50.00 Ry     beta=0.70
     Davidson diagonalization with overlap
     ethr =  9.02E-05,  avg # of iterations =  4.6

     total cpu time spent up to now is      113.4 secs

     total energy              =   -2248.80744265 Ry
     Harris-Foulkes estimate   =   -2248.81001794 Ry
     estimated scf accuracy    <       0.00692688 Ry

     iteration #  6     ecut=    50.00 Ry     beta=0.70
     Davidson diagonalization with overlap
     ethr =  1.28E-05,  avg # of iterations =  4.5

     total cpu time spent up to now is      134.2 secs

     total energy              =   -2248.80850102 Ry
     Harris-Foulkes estimate   =   -2248.80925106 Ry
     estimated scf accuracy    <       0.00193682 Ry

     iteration #  7     ecut=    50.00 Ry     beta=0.70
     Davidson diagonalization with overlap
     ethr =  3.59E-06,  avg # of iterations =  3.3

     total cpu time spent up to now is      153.7 secs

     total energy              =   -2248.80886088 Ry
     Harris-Foulkes estimate   =   -2248.80896900 Ry
     estimated scf accuracy    <       0.00026208 Ry

     iteration #  8     ecut=    50.00 Ry     beta=0.70
     Davidson diagonalization with overlap
     ethr =  4.85E-07,  avg # of iterations =  3.4

     total cpu time spent up to now is      172.0 secs

     total energy              =   -2248.80890494 Ry
     Harris-Foulkes estimate   =   -2248.80895465 Ry
     estimated scf accuracy    <       0.00012733 Ry

     iteration #  9     ecut=    50.00 Ry     beta=0.70
     Davidson diagonalization with overlap
     ethr =  2.36E-07,  avg # of iterations =  2.9

     total cpu time spent up to now is      243.3 secs

     total energy              =   -2248.80892885 Ry
     Harris-Foulkes estimate   =   -2248.80893150 Ry
     estimated scf accuracy    <       0.00000681 Ry

     iteration # 10     ecut=    50.00 Ry     beta=0.70
     Davidson diagonalization with overlap
     ethr =  1.26E-08,  avg # of iterations =  2.9

     total cpu time spent up to now is      299.2 secs

     End of self-consistent calculation

          k = 0.0000 0.0000 0.0000 (  5761 PWs)   bands (ev):

   -34.3811 -34.3811 -33.9285 -33.9285 -33.8807 -33.8807 -33.1143 -33.1143
   -15.4629 -15.4629 -15.0297 -15.0297 -14.9352 -14.9352 -14.3265 -14.3265
   -11.6739 -11.6739 -11.2687 -11.2687 -11.1264 -11.1264 -10.7098 -10.7098
   -10.6065 -10.6065 -10.2725 -10.2725 -10.1009 -10.1009  -9.6464  -9.6464
     2.2774   2.2774   4.7889   4.7889   5.2508   5.2508   5.4284   5.4284
     5.5807   5.5807   6.3612   6.3612   7.2075   7.2075   7.5434   7.5434
     7.9949   7.9949   8.7700   8.7700   9.5129   9.5129  10.3863  10.3863
    11.1731  11.1731  11.3687  11.3687  11.8526  11.8526  12.2512  12.2512

          k = 0.0000 0.0000 0.3132 (  5777 PWs)   bands (ev):

   -34.3806 -34.3806 -33.9281 -33.9280 -33.8815 -33.8815 -33.1147 -33.1147
   -15.4599 -15.4530 -15.0309 -15.0081 -14.9563 -14.9375 -14.3351 -14.3293
   -11.6788 -11.6520 -11.2951 -11.2124 -11.1625 -11.0980 -10.7216 -10.6987
   -10.6176 -10.5978 -10.2907 -10.2314 -10.1661 -10.1125  -9.6517  -9.6455
     2.6322   2.6726   4.5104   4.5791   4.9131   4.9610   5.2755   5.3223
     5.9569   5.9913   6.2265   6.2486   7.1504   7.1802   7.4342   7.4633
     7.9610   8.0441   8.8112   8.8342   9.6600   9.7036  10.5429  10.5652
    10.8482  10.9420  11.1687  11.2166  11.7562  11.7806  11.9560  12.0076

          k = 0.0000 0.0000-0.6263 (  5758 PWs)   bands (ev):

   -34.3801 -34.3801 -33.9276 -33.9276 -33.8823 -33.8823 -33.1151 -33.1151
   -15.4501 -15.4501 -15.0081 -15.0081 -14.9597 -14.9597 -14.3380 -14.3380
   -11.6589 -11.6589 -11.2497 -11.2497 -11.1216 -11.1216 -10.7118 -10.7118
   -10.6059 -10.6059 -10.2644 -10.2644 -10.1644 -10.1644  -9.6505  -9.6505
     3.4631   3.4631   3.7729   3.7729   4.8651   4.8651   5.0817   5.0817
     5.8738   5.8738   6.7932   6.7932   7.0147   7.0147   7.2471   7.2471
     8.0371   8.0371   8.8039   8.8039   9.8527   9.8527  10.7716  10.7716
    10.8578  10.8578  11.1609  11.1609  11.3086  11.3086  11.7129  11.7129

          k = 0.0000 0.5773 0.0000 (  5800 PWs)   bands (ev):

   -34.3723 -34.3722 -33.9216 -33.9215 -33.8720 -33.8719 -33.1072 -33.1071
   -15.4868 -15.4791 -15.0528 -15.0454 -14.9787 -14.9745 -14.3506 -14.3471
   -11.7060 -11.6949 -11.3169 -11.2787 -11.1872 -11.1691 -10.7495 -10.7280
   -10.6506 -10.6327 -10.3167 -10.3033 -10.1856 -10.1595  -9.7927  -9.7805
     3.2459   3.3071   4.6444   4.8310   5.0736   5.0943   5.5197   5.5338
     5.7723   5.8804   6.4564   6.5772   6.7305   6.8249   7.0146   7.2771
     7.7289   7.9859   8.6740   8.7836  10.0126  10.0419  10.3053  10.3247
    11.0679  11.1472  11.3790  11.4790  11.6000  11.7115  12.0752  12.1295

          k = 0.0000 0.5773 0.3132 (  5776 PWs)   bands (ev):

   -34.3720 -34.3719 -33.9209 -33.9208 -33.8729 -33.8728 -33.1074 -33.1073
   -15.4837 -15.4722 -15.0520 -15.0311 -14.9980 -14.9794 -14.3552 -14.3510
   -11.7044 -11.6794 -11.3422 -11.2589 -11.2040 -11.1564 -10.7517 -10.7113
   -10.6541 -10.6382 -10.3376 -10.2764 -10.2142 -10.1536  -9.7869  -9.7744
     3.5679   3.6066   4.7332   4.8034   4.8716   4.9667   5.4136   5.4577
     5.5156   5.5372   6.5096   6.6369   6.9128   6.9766   7.1522   7.3146
     7.7236   7.9430   8.3598   8.4223   9.9168   9.9583  10.4949  10.5325
    11.0656  11.1449  11.4440  11.4760  11.8363  11.9250  12.2088  12.3304

          k = 0.0000 0.5773-0.6263 (  5782 PWs)   bands (ev):

   -34.3717 -34.3716 -33.9201 -33.9200 -33.8738 -33.8737 -33.1076 -33.1075
   -15.4836 -15.4727 -15.0383 -15.0330 -14.9989 -14.9942 -14.3563 -14.3534
   -11.7100 -11.6761 -11.3306 -11.2906 -11.1661 -11.1566 -10.7468 -10.7002
   -10.6568 -10.6234 -10.3341 -10.2883 -10.2196 -10.1893  -9.7815  -9.7617
     3.8609   3.9509   4.4135   4.4499   4.9107   5.0192   5.2833   5.3655
     5.6634   5.6961   6.5766   6.6281   6.7320   6.8206   7.0994   7.2595
     7.6892   7.9177   8.4971   8.6362   9.9821  10.0372  10.4463  10.4900
    11.1847  11.2605  11.4672  11.4934  11.7867  11.8240  12.0287  12.0537

          k = 0.0000-1.1547 0.0000 (  5796 PWs)   bands (ev):

   -34.3636 -34.3636 -33.9145 -33.9145 -33.8630 -33.8630 -33.0998 -33.0998
   -15.5120 -15.5120 -15.0810 -15.0810 -15.0093 -15.0093 -14.3713 -14.3713
   -11.7372 -11.7372 -11.3420 -11.3420 -11.2351 -11.2351 -10.7675 -10.7675
   -10.6557 -10.6557 -10.3258 -10.3258 -10.2353 -10.2353  -9.8825  -9.8825
     4.2829   4.2829   4.8779   4.8779   5.0699   5.0699   5.3352   5.3352
     5.5327   5.5327   5.6741   5.6741   6.5149   6.5149   7.4576   7.4576
     7.8754   7.8754   8.8867   8.8867   9.6517   9.6517  10.8029  10.8029
    10.9220  10.9220  11.1118  11.1118  12.1404  12.1404  12.9360  12.9360

          k = 0.0000-1.1547 0.3132 (  5768 PWs)   bands (ev):

   -34.3636 -34.3636 -33.9136 -33.9136 -33.8639 -33.8639 -33.0998 -33.0998
   -15.5157 -15.5137 -15.0841 -15.0702 -15.0232 -15.0091 -14.3737 -14.3713
   -11.7465 -11.7322 -11.3790 -11.3283 -11.2498 -11.2048 -10.7638 -10.7327
   -10.6811 -10.6387 -10.3432 -10.3100 -10.2696 -10.2084  -9.8803  -9.8537
     4.2567   4.2653   4.5739   4.5957   4.8262   4.8659   5.2578   5.3138
     5.8377   5.9660   6.1698   6.2184   6.3761   6.4608   7.4427   7.5243
     7.9350   8.0566   8.6039   8.6761   9.6776   9.7249  10.5019  10.5853
    10.7877  10.8549  11.2413  11.2772  12.1399  12.1565  12.7595  12.8240

          k = 0.0000-1.1547-0.6263 (  5800 PWs)   bands (ev):

   -34.3635 -34.3635 -33.9126 -33.9126 -33.8648 -33.8648 -33.0998 -33.0998
   -15.5174 -15.5174 -15.0744 -15.0744 -15.0220 -15.0220 -14.3738 -14.3738
   -11.7415 -11.7415 -11.3717 -11.3717 -11.2130 -11.2130 -10.7342 -10.7342
   -10.6589 -10.6589 -10.3391 -10.3391 -10.2310 -10.2310  -9.8516  -9.8516
     4.1851   4.1851   4.4975   4.4975   4.7819   4.7819   5.1966   5.1966
     5.8195   5.8195   6.5753   6.5753   6.8085   6.8085   7.5637   7.5637
     7.8886   7.8886   8.3703   8.3703   9.7394   9.7394  10.3891  10.3891
    11.0356  11.0356  11.3073  11.3073  12.1385  12.1385  12.3735  12.3735

          k = 0.2500 0.1443 0.0000 (  5751 PWs)   bands (ev):

   -34.3809 -34.3808 -33.9284 -33.9284 -33.8810 -33.8810 -33.1146 -33.1145
   -15.4606 -15.4595 -15.0259 -15.0224 -14.9396 -14.9374 -14.3286 -14.3276
   -11.6699 -11.6647 -11.2682 -11.2424 -11.1420 -11.1161 -10.7273 -10.7117
   -10.5947 -10.5859 -10.2639 -10.2546 -10.1354 -10.1304  -9.6799  -9.6724
     2.5549   2.6175   4.3893   4.5513   5.0842   5.1380   5.5580   5.5634
     5.9954   6.1358   6.2950   6.3352   6.9645   7.0656   7.2794   7.3339
     8.0456   8.1551   8.6416   8.6794   9.6673   9.7168  10.3624  10.3922
    11.0037  11.0221  11.3011  11.3684  11.6000  11.6487  11.8920  11.9305

          k = 0.2500 0.1443 0.3132 (  5768 PWs)   bands (ev):

   -34.3803 -34.3803 -33.9279 -33.9279 -33.8817 -33.8817 -33.1149 -33.1149
   -15.4565 -15.4499 -15.0260 -15.0011 -14.9619 -14.9411 -14.3363 -14.3306
   -11.6684 -11.6447 -11.2870 -11.1997 -11.1616 -11.1023 -10.7124 -10.7035
   -10.6136 -10.6015 -10.2914 -10.2329 -10.1749 -10.1273  -9.6855  -9.6728
     2.9225   2.9895   4.4157   4.5529   4.7757   4.8695   5.3725   5.4294
     5.8778   5.9544   6.3181   6.4491   6.9957   7.0706   7.3118   7.3581
     8.0972   8.2446   8.5695   8.6026   9.7195   9.7812  10.6210  10.6962
    10.7808  10.8187  10.9180  10.9622  11.6187  11.6474  11.7938  11.8777

          k = 0.2500 0.1443-0.6263 (  5782 PWs)   bands (ev):

   -34.3798 -34.3798 -33.9274 -33.9274 -33.8826 -33.8825 -33.1153 -33.1153
   -15.4463 -15.4452 -15.0077 -15.0070 -14.9613 -14.9603 -14.3392 -14.3382
   -11.6483 -11.6424 -11.2539 -11.2484 -11.1258 -11.1121 -10.7101 -10.6913
   -10.6225 -10.5959 -10.2905 -10.2641 -10.1762 -10.1594  -9.6822  -9.6756
     3.6525   3.7068   4.0076   4.0413   4.7141   4.7947   4.9446   5.0280
     5.8711   5.9355   6.6783   6.7946   6.9201   6.9887   7.1701   7.2208
     7.9672   8.1168   8.6736   8.7469   9.9506  10.0087  10.6176  10.6493
    10.7700  10.8168  11.0321  11.0671  11.1618  11.2119  11.5635  11.6169

          k = 0.2500 0.7217 0.0000 (  5780 PWs)   bands (ev):

   -34.3721 -34.3721 -33.9215 -33.9214 -33.8721 -33.8721 -33.1073 -33.1072
   -15.4871 -15.4796 -15.0512 -15.0446 -14.9780 -14.9738 -14.3518 -14.3485
   -11.7021 -11.6935 -11.2950 -11.2822 -11.2012 -11.1638 -10.7606 -10.7385
   -10.6220 -10.6069 -10.3097 -10.2754 -10.2189 -10.1911  -9.8136  -9.7927
     3.7737   3.8099   4.1494   4.2679   5.2142   5.2469   5.5382   5.5661
     5.7164   5.7722   6.3829   6.5036   6.5988   6.6363   7.0868   7.2666
     7.8845   8.0181   8.5672   8.6294  10.0887  10.1222  10.3408  10.3675
    10.9392  10.9748  11.1383  11.2392  11.4708  11.6078  11.9501  12.0081

          k = 0.2500 0.7217 0.3132 (  5788 PWs)   bands (ev):

   -34.3718 -34.3717 -33.9208 -33.9207 -33.8730 -33.8729 -33.1076 -33.1074
   -15.4836 -15.4727 -15.0523 -15.0330 -14.9947 -14.9780 -14.3563 -14.3520
   -11.6984 -11.6750 -11.3287 -11.2683 -11.2046 -11.1612 -10.7496 -10.7085
   -10.6464 -10.6121 -10.3248 -10.2854 -10.2219 -10.1796  -9.8042  -9.7885
     3.9779   3.9892   4.4124   4.4903   4.9753   5.0368   5.2670   5.3356
     5.5236   5.5947   6.5182   6.6368   6.7449   6.8176   7.2529   7.3259
     7.7384   7.8295   8.4074   8.4880  10.0305  10.0553  10.4913  10.5223
    10.9348  10.9512  11.1310  11.1613  11.6236  11.7010  12.0350  12.1086

          k = 0.2500 0.7217-0.6263 (  5776 PWs)   bands (ev):

   -34.3716 -34.3715 -33.9200 -33.9199 -33.8739 -33.8738 -33.1077 -33.1076
   -15.4836 -15.4735 -15.0385 -15.0319 -14.9980 -14.9933 -14.3573 -14.3545
   -11.6996 -11.6726 -11.3279 -11.2940 -11.1727 -11.1519 -10.7308 -10.6897
   -10.6486 -10.6236 -10.3376 -10.3100 -10.2101 -10.1975  -9.8019  -9.7751
     4.1647   4.2466   4.4878   4.5242   4.8131   4.8834   4.9590   5.0301
     5.7994   5.8716   6.4968   6.5663   6.7289   6.9496   7.0352   7.0861
     7.9639   8.0875   8.4230   8.4766  10.0706  10.1137  10.3504  10.3814
    10.8687  10.9474  11.3505  11.3815  11.5083  11.5387  11.6344  11.7130

          k = 0.2500-1.0104 0.0000 (  5830 PWs)   bands (ev):

   -34.3636 -34.3636 -33.9145 -33.9145 -33.8629 -33.8629 -33.0998 -33.0998
   -15.5111 -15.5103 -15.0818 -15.0808 -15.0077 -15.0067 -14.3703 -14.3700
   -11.7365 -11.7345 -11.3459 -11.3353 -11.2330 -11.2223 -10.7606 -10.7581
   -10.6487 -10.6396 -10.3555 -10.3453 -10.2517 -10.2463  -9.8983  -9.8922
     4.4230   4.4539   4.9646   4.9824   5.0564   5.0857   5.3363   5.3840
     5.5631   5.6168   5.8070   5.9180   6.4995   6.5444   7.1759   7.2927
     7.7137   7.7401   8.7618   8.7878   9.8079   9.8542  10.6601  10.7432
    10.8766  11.0090  11.0783  11.1205  11.7883  11.8306  12.5222  12.5709

          k = 0.2500-1.0104 0.3132 (  5808 PWs)   bands (ev):

   -34.3636 -34.3636 -33.9136 -33.9136 -33.8639 -33.8639 -33.0998 -33.0998
   -15.5147 -15.5120 -15.0832 -15.0709 -15.0208 -15.0080 -14.3727 -14.3701
   -11.7446 -11.7312 -11.3702 -11.3329 -11.2394 -11.2020 -10.7575 -10.7211
   -10.6722 -10.6280 -10.3629 -10.3362 -10.2881 -10.2219  -9.8902  -9.8662
     4.3746   4.4196   4.6902   4.7576   5.0031   5.0241   5.2438   5.3447
     5.7658   5.8909   6.2642   6.3669   6.4334   6.5632   7.2221   7.3400
     7.6175   7.7469   8.4507   8.5818   9.7967   9.8331  10.2994  10.3800
    10.8432  10.9331  11.3076  11.3353  11.8648  11.9468  12.3707  12.4347

          k = 0.2500-1.0104-0.6263 (  5768 PWs)   bands (ev):

   -34.3635 -34.3635 -33.9126 -33.9126 -33.8648 -33.8648 -33.0998 -33.0998
   -15.5164 -15.5152 -15.0754 -15.0720 -15.0219 -15.0199 -14.3729 -14.3724
   -11.7425 -11.7388 -11.3756 -11.3547 -11.2180 -11.2012 -10.7362 -10.6978
   -10.6790 -10.6424 -10.3657 -10.3482 -10.2620 -10.2398  -9.8625  -9.8610
     4.3661   4.4202   4.6188   4.6647   4.8881   4.9298   5.2699   5.3324
     5.7818   5.8412   6.4863   6.5450   6.7156   6.8598   7.2586   7.3413
     7.6377   7.7088   8.1711   8.2435   9.8189   9.9051  10.1201  10.1925
    10.9313  10.9967  11.3071  11.3963  11.7740  11.8050  12.1549  12.2506

          k = 0.2500-0.4330 0.0000 (  5792 PWs)   bands (ev):

   -34.3724 -34.3723 -33.9216 -33.9215 -33.8719 -33.8718 -33.1071 -33.1070
   -15.4894 -15.4809 -15.0560 -15.0502 -14.9730 -14.9685 -14.3490 -14.3462
   -11.7094 -11.6977 -11.3147 -11.2860 -11.1741 -11.1605 -10.7430 -10.7163
   -10.6422 -10.6234 -10.3406 -10.3295 -10.1896 -10.1732  -9.7838  -9.7769
     3.0809   3.1523   4.9945   5.0741   5.2556   5.3408   5.5276   5.5569
     5.9141   5.9730   6.1554   6.2831   6.7087   6.7784   7.1535   7.3412
     7.4989   7.6985   8.6951   8.7976  10.0229  10.0863  10.2145  10.2375
    11.1647  11.2447  11.3668  11.4448  11.6555  11.6976  12.0285  12.0719

          k = 0.2500-0.4330 0.3132 (  5790 PWs)   bands (ev):

   -34.3722 -34.3721 -33.9208 -33.9207 -33.8727 -33.8727 -33.1073 -33.1072
   -15.4906 -15.4807 -15.0540 -15.0356 -14.9881 -14.9726 -14.3505 -14.3487
   -11.7212 -11.6908 -11.3183 -11.2697 -11.1853 -11.1433 -10.7277 -10.6991
   -10.6483 -10.6284 -10.3470 -10.2990 -10.2379 -10.1894  -9.7820  -9.7632
     3.2827   3.3837   4.9649   5.0468   5.2082   5.3482   5.4588   5.5065
     5.7347   5.7728   6.1496   6.2710   6.5907   6.6546   7.2456   7.4018
     7.6183   7.6925   8.7287   8.8595  10.0050  10.0582  10.2886  10.3301
    11.0853  11.1807  11.1987  11.2374  11.5324  11.5850  12.0637  12.1482

          k = 0.2500-0.4330-0.6263 (  5812 PWs)   bands (ev):

   -34.3719 -34.3718 -33.9201 -33.9201 -33.8736 -33.8735 -33.1075 -33.1074
   -15.4875 -15.4750 -15.0345 -15.0309 -14.9997 -14.9923 -14.3552 -14.3530
   -11.7187 -11.6802 -11.3112 -11.2829 -11.1650 -11.1632 -10.7476 -10.6795
   -10.6445 -10.6228 -10.3388 -10.3156 -10.2346 -10.2063  -9.7761  -9.7569
     3.8934   3.9832   4.3836   4.4254   5.1149   5.1950   5.4827   5.5098
     5.7021   5.7369   6.2267   6.3189   6.7687   6.8280   7.1475   7.1964
     7.6191   7.6459   8.5012   8.6238   9.7838   9.8587  10.5586  10.5833
    11.1467  11.1812  11.3417  11.3878  11.4758  11.5262  11.7692  11.8757

          k =-0.5000-0.2887 0.0000 (  5780 PWs)   bands (ev):

   -34.3806 -34.3806 -33.9283 -33.9283 -33.8812 -33.8812 -33.1148 -33.1148
   -15.4572 -15.4572 -15.0181 -15.0181 -14.9423 -14.9423 -14.3297 -14.3297
   -11.6610 -11.6610 -11.2412 -11.2412 -11.1321 -11.1321 -10.7303 -10.7303
   -10.5712 -10.5712 -10.2255 -10.2255 -10.1871 -10.1871  -9.7058  -9.7058
     3.2092   3.2092   3.6627   3.6627   5.5071   5.5071   5.7959   5.7959
     6.1027   6.1027   6.3645   6.3645   6.7440   6.7440   7.0540   7.0540
     8.1822   8.1822   8.5364   8.5364   9.9477   9.9477  10.3007  10.3007
    11.0145  11.0145  11.1291  11.1291  11.4642  11.4642  11.7402  11.7402

          k =-0.5000-0.2887 0.3132 (  5750 PWs)   bands (ev):

   -34.3801 -34.3801 -33.9278 -33.9278 -33.8820 -33.8820 -33.1152 -33.1152
   -15.4525 -15.4462 -15.0224 -15.0001 -14.9628 -14.9436 -14.3376 -14.3315
   -11.6572 -11.6349 -11.2751 -11.2095 -11.1542 -11.1032 -10.7254 -10.7006
   -10.6008 -10.5785 -10.2782 -10.2473 -10.1813 -10.1654  -9.7152  -9.6988
     3.4481   3.4968   3.9075   3.9434   5.0639   5.2026   5.4333   5.5084
     5.8976   6.0517   6.3789   6.4138   6.7766   6.8491   7.1454   7.1809
     8.1167   8.1994   8.5383   8.6402   9.9525  10.0064  10.4204  10.4640
    10.7279  10.8285  11.1197  11.1557  11.3679  11.4514  11.5445  11.5545

          k =-0.5000-0.2887-0.6263 (  5788 PWs)   bands (ev):

   -34.3796 -34.3796 -33.9272 -33.9272 -33.8828 -33.8828 -33.1155 -33.1155
   -15.4413 -15.4413 -15.0071 -15.0071 -14.9616 -14.9616 -14.3394 -14.3394
   -11.6313 -11.6313 -11.2535 -11.2535 -11.1161 -11.1161 -10.6920 -10.6920
   -10.6086 -10.6086 -10.2945 -10.2945 -10.1676 -10.1676  -9.7079  -9.7079
     4.0055   4.0055   4.3783   4.3783   4.6286   4.6286   4.7160   4.7160
     6.0206   6.0206   6.4854   6.4854   6.8846   6.8846   7.1190   7.1190
     8.2849   8.2849   8.4919   8.4919  10.1508  10.1508  10.4323  10.4323
    10.6914  10.6914  10.9344  10.9344  11.2140  11.2140  11.5091  11.5091

          k =-0.5000 0.2887 0.0000 (  5800 PWs)   bands (ev):

   -34.3723 -34.3722 -33.9215 -33.9214 -33.8720 -33.8719 -33.1073 -33.1072
   -15.4896 -15.4815 -15.0548 -15.0490 -14.9721 -14.9680 -14.3502 -14.3477
   -11.7058 -11.6958 -11.2952 -11.2888 -11.1894 -11.1529 -10.7527 -10.7281
   -10.6123 -10.5962 -10.3254 -10.3144 -10.2200 -10.2079  -9.8016  -9.7897
     3.3463   3.4569   4.8431   4.9090   5.2753   5.3406   5.5380   5.5700
     5.8560   5.8992   6.1178   6.2320   6.5561   6.6180   7.1078   7.2232
     7.6569   7.7465   8.6584   8.7189  10.1255  10.1614  10.2601  10.3230
    10.9459  11.0325  11.1657  11.2096  11.4171  11.5110  11.8334  11.9298

          k =-0.5000 0.2887 0.3132 (  5776 PWs)   bands (ev):

   -34.3720 -34.3719 -33.9208 -33.9207 -33.8728 -33.8728 -33.1075 -33.1074
   -15.4867 -15.4752 -15.0534 -15.0345 -14.9911 -14.9734 -14.3553 -14.3509
   -11.7030 -11.6793 -11.3222 -11.2670 -11.2006 -11.1540 -10.7499 -10.7056
   -10.6278 -10.5934 -10.3349 -10.3088 -10.2445 -10.2001  -9.7955  -9.7809
     3.6563   3.7321   4.8853   4.9494   5.0649   5.1388   5.3234   5.3835
     5.7633   5.7980   6.2053   6.3568   6.7552   6.8015   7.1526   7.2101
     7.4203   7.4815   8.5366   8.5967  10.0410  10.0953  10.4406  10.4836
    10.9106  10.9667  11.0525  11.1254  11.4227  11.4893  12.1644  12.2005

          k =-0.5000 0.2887-0.6263 (  5782 PWs)   bands (ev):

   -34.3717 -34.3717 -33.9200 -33.9199 -33.8737 -33.8737 -33.1077 -33.1076
   -15.4875 -15.4759 -15.0336 -15.0307 -14.9988 -14.9915 -14.3561 -14.3541
   -11.7083 -11.6772 -11.3077 -11.2853 -11.1764 -11.1552 -10.7313 -10.6681
   -10.6341 -10.6228 -10.3431 -10.3361 -10.2281 -10.2175  -9.7952  -9.7694
     4.1333   4.2051   4.5561   4.6319   4.7810   4.8645   5.2796   5.3175
     5.9343   5.9999   6.2381   6.3208   6.7139   6.7832   6.9434   7.0731
     7.7519   7.8072   8.4742   8.5763   9.8934   9.9884  10.3567  10.4244
    10.8405  10.9334  11.1806  11.2392  11.3841  11.4230  11.5671  11.6527

          k =-0.5000-1.4434 0.0000 (  5820 PWs)   bands (ev):

   -34.3636 -34.3636 -33.9146 -33.9146 -33.8629 -33.8629 -33.0998 -33.0998
   -15.5094 -15.5094 -15.0816 -15.0816 -15.0052 -15.0052 -14.3690 -14.3690
   -11.7337 -11.7337 -11.3397 -11.3397 -11.2196 -11.2196 -10.7531 -10.7531
   -10.6259 -10.6259 -10.3809 -10.3809 -10.2617 -10.2617  -9.9080  -9.9080
     4.6141   4.6141   4.9681   4.9681   5.1106   5.1106   5.5200   5.5200
     5.6351   5.6351   6.1334   6.1334   6.4946   6.4946   6.8718   6.8718
     7.5828   7.5828   8.6475   8.6475  10.2776  10.2776  10.3936  10.3936
    10.9201  10.9201  11.0842  11.0842  11.5559  11.5559  12.1678  12.1678

          k =-0.5000-1.4434 0.3132 (  5802 PWs)   bands (ev):

   -34.3636 -34.3636 -33.9136 -33.9136 -33.8639 -33.8638 -33.0998 -33.0998
   -15.5129 -15.5106 -15.0839 -15.0704 -15.0193 -15.0060 -14.3714 -14.3692
   -11.7446 -11.7287 -11.3690 -11.3274 -11.2322 -11.1956 -10.7511 -10.7079
   -10.6605 -10.6196 -10.3857 -10.3696 -10.2930 -10.2425  -9.9018  -9.8779
     4.5632   4.6279   4.8558   4.9443   5.2249   5.2936   5.3349   5.3777
     5.6063   5.6473   6.1255   6.2212   6.7094   6.8632   6.9637   7.1013
     7.3559   7.4163   8.2981   8.4371  10.0868  10.1231  10.2113  10.2560
    10.8790  10.9390  10.9809  11.0534  11.5254  11.6357  12.2246  12.2945

          k =-0.5000-1.4434-0.6263 (  5776 PWs)   bands (ev):

   -34.3635 -34.3635 -33.9126 -33.9126 -33.8648 -33.8648 -33.0998 -33.0998
   -15.5142 -15.5142 -15.0731 -15.0731 -15.0198 -15.0198 -14.3716 -14.3716
   -11.7398 -11.7398 -11.3597 -11.3597 -11.2051 -11.2051 -10.7116 -10.7116
   -10.6481 -10.6481 -10.3789 -10.3789 -10.2697 -10.2697  -9.8717  -9.8717
     4.5933   4.5933   4.8797   4.8797   5.1284   5.1284   5.3517   5.3517
     5.7279   5.7279   6.4064   6.4064   6.7935   6.7935   7.0111   7.0111
     7.5368   7.5368   7.9761   7.9761   9.8437   9.8437  10.0684  10.0684
    11.2294  11.2294  11.3992  11.3992  11.4650  11.4650  11.6143  11.6143

          k = 0.0000-0.5773 0.3132 (  5776 PWs)   bands (ev):

   -34.3720 -34.3719 -33.9208 -33.9207 -33.8729 -33.8728 -33.1074 -33.1073
   -15.4872 -15.4791 -15.0517 -15.0343 -14.9918 -14.9775 -14.3521 -14.3491
   -11.7134 -11.6888 -11.3271 -11.2767 -11.1868 -11.1444 -10.7413 -10.7158
   -10.6534 -10.6254 -10.3228 -10.2838 -10.2216 -10.1847  -9.7869  -9.7668
     3.3788   3.4627   4.7017   4.8271   5.0057   5.0507   5.4430   5.4615
     5.7629   5.8507   6.4941   6.5661   6.5846   6.7223   7.0790   7.2666
     7.6621   7.9010   8.7943   8.9571  10.1402  10.1785  10.3496  10.3828
    11.0519  11.1270  11.2779  11.3850  11.6330  11.7065  12.0820  12.1343

          k =-0.2500-0.1443 0.3132 (  5768 PWs)   bands (ev):

   -34.3803 -34.3803 -33.9279 -33.9279 -33.8818 -33.8818 -33.1149 -33.1149
   -15.4562 -15.4492 -15.0277 -15.0070 -14.9571 -14.9397 -14.3364 -14.3301
   -11.6681 -11.6418 -11.2849 -11.2205 -11.1577 -11.0961 -10.7287 -10.6993
   -10.5964 -10.5893 -10.2825 -10.2360 -10.1806 -10.1448  -9.6824  -9.6696
     2.8761   2.9520   4.5292   4.6326   4.8100   4.8796   5.2319   5.2828
     6.0233   6.0654   6.3757   6.5012   6.9470   7.0309   7.2041   7.2715
     7.9095   8.0229   8.8013   8.8679   9.9748  10.0020  10.2569  10.3006
    10.8224  10.8898  11.1971  11.2709  11.4766  11.4814  11.9281  11.9826

          k =-0.2500-0.7217 0.3132 (  5788 PWs)   bands (ev):

   -34.3719 -34.3718 -33.9207 -33.9206 -33.8730 -33.8729 -33.1075 -33.1074
   -15.4875 -15.4800 -15.0497 -15.0305 -14.9944 -14.9768 -14.3534 -14.3504
   -11.7065 -11.6875 -11.3226 -11.2687 -11.1913 -11.1435 -10.7484 -10.7118
   -10.6421 -10.6045 -10.3226 -10.2912 -10.2261 -10.1977  -9.8078  -9.7814
     3.8612   3.9331   4.1792   4.3225   5.1581   5.2060   5.3704   5.4062
     5.8040   5.8582   6.3781   6.4550   6.6383   6.7364   6.9819   7.1552
     7.9396   8.1029   8.6000   8.7536  10.1493  10.1895  10.4003  10.4679
    10.8779  10.9560  11.0907  11.1481  11.3229  11.4063  11.7060  11.7712

          k =-0.2500 1.0104 0.3132 (  5808 PWs)   bands (ev):

   -34.3636 -34.3636 -33.9136 -33.9136 -33.8639 -33.8639 -33.0998 -33.0998
   -15.5142 -15.5121 -15.0848 -15.0698 -15.0215 -15.0071 -14.3725 -14.3704
   -11.7466 -11.7295 -11.3787 -11.3206 -11.2448 -11.1981 -10.7556 -10.7184
   -10.6727 -10.6376 -10.3607 -10.3395 -10.2761 -10.2285  -9.8921  -9.8653
     4.4212   4.4717   4.7836   4.7925   4.8811   4.9392   5.3878   5.4239
     5.6893   5.7485   6.0975   6.1910   6.5531   6.6460   7.1663   7.2864
     7.7487   7.8521   8.4466   8.5514   9.8888   9.9883  10.3759  10.4499
    10.8050  10.8934  11.1684  11.1772  11.5719  11.5984  12.7004  12.7416

          k =-0.2500 0.4330 0.3132 (  5790 PWs)   bands (ev):

   -34.3721 -34.3720 -33.9209 -33.9208 -33.8727 -33.8726 -33.1073 -33.1072
   -15.4867 -15.4747 -15.0532 -15.0331 -14.9940 -14.9747 -14.3542 -14.3499
   -11.7091 -11.6836 -11.3350 -11.2584 -11.2003 -11.1486 -10.7559 -10.7045
   -10.6368 -10.6222 -10.3474 -10.3053 -10.2279 -10.1718  -9.7802  -9.7672
     3.4449   3.4756   4.9046   4.9774   5.0186   5.1239   5.5064   5.5702
     5.6865   5.7406   6.2591   6.4440   6.9377   6.9771   7.0097   7.0797
     7.5212   7.6698   8.4478   8.5266   9.8209   9.8754  10.6435  10.6857
    11.0333  11.0925  11.1903  11.2684  11.7465  11.7987  12.2825  12.3614

          k = 0.5000-0.2887 0.3132 (  5776 PWs)   bands (ev):

   -34.3721 -34.3720 -33.9207 -33.9206 -33.8729 -33.8728 -33.1075 -33.1073
   -15.4909 -15.4817 -15.0522 -15.0319 -14.9904 -14.9719 -14.3519 -14.3499
   -11.7145 -11.6893 -11.3150 -11.2586 -11.1926 -11.1416 -10.7360 -10.6920
   -10.6413 -10.6023 -10.3470 -10.3051 -10.2468 -10.2039  -9.8014  -9.7770
     3.5595   3.6880   4.7265   4.8189   5.2351   5.3126   5.3820   5.4240
     5.8457   5.9151   6.1532   6.1849   6.6041   6.6872   6.9957   7.0934
     7.8797   8.0208   8.6049   8.6935  10.0206  10.0664  10.2784  10.3188
    10.8618  10.9036  11.0146  11.0855  11.4288  11.5281  11.6749  11.7491

     the Fermi energy is    10.1896 ev

!    total energy              =   -2248.80893036 Ry
     Harris-Foulkes estimate   =   -2248.80893057 Ry
     estimated scf accuracy    <       0.00000037 Ry

     total all-electron energy =    -90253.152299 Ry

     The total energy is the sum of the following terms:

     one-electron contribution =     -46.71600192 Ry
     hartree contribution      =      47.22636444 Ry
     xc contribution           =    -260.04222520 Ry
     ewald contribution        =    -241.15922777 Ry
     one-center paw contrib.   =   -1748.11506499 Ry
     smearing contrib. (-TS)   =      -0.00277492 Ry

     convergence has been achieved in  10 iterations

     Forces acting on atoms (cartesian axes, Ry/au):

     atom    1 type  1   force =    -0.02578909    0.05859834   -0.70320730
     atom    2 type  1   force =     0.14226413    0.05354156   -0.78041584
     atom    3 type  1   force =     0.01879734   -0.71469914   -0.47643271
     atom    4 type  1   force =     0.00554921   -0.79251526   -0.17190602
     atom    5 type  2   force =     0.03635177   -0.08649574    0.70129287
     atom    6 type  2   force =    -0.12208596   -0.11365069    0.64992620
     atom    7 type  2   force =     0.00120443   -0.00171066    0.00566421
     atom    8 type  2   force =    -0.00001403   -0.01329423    0.00926547
     atom    9 type  2   force =    -0.01529493    0.71386296    0.47665695
     atom   10 type  2   force =     0.04754668    0.76952305    0.18261663
     atom   11 type  2   force =     0.16347377    0.05184738    0.07097355
     atom   12 type  2   force =    -0.19189514    0.05009620    0.08740997
     atom   13 type  2   force =     0.00359195    0.00946554   -0.01224660
     atom   14 type  2   force =    -0.06370015    0.01543068   -0.03959739

     Total force =     2.220370     Total SCF correction =     0.001754

     Writing output data file 2404.save

mkdir fail: [122] Disk quota exceeded

 %%%%%%%%%%%%%%%%%%%%%%%%%%%%%%%%%%%%%%%%%%%%%%%%%%%%%%%%%%%%%%%%%%%%%%%%%%%%%%
     Error in routine create_directory (1):
     unable to create directory /home/shaharpit/tmp/2404.save/K00004
 %%%%%%%%%%%%%%%%%%%%%%%%%%%%%%%%%%%%%%%%%%%%%%%%%%%%%%%%%%%%%%%%%%%%%%%%%%%%%%

     stopping ...

 %%%%%%%%%%%%%%%%%%%%%%%%%%%%%%%%%%%%%%%%%%%%%%%%%%%%%%%%%%%%%%%%%%%%%%%%%%%%%%
     Error in routine create_directory (1):
     unable to create directory /home/shaharpit/tmp/2404.save/K00004
 %%%%%%%%%%%%%%%%%%%%%%%%%%%%%%%%%%%%%%%%%%%%%%%%%%%%%%%%%%%%%%%%%%%%%%%%%%%%%%

     stopping ...

 %%%%%%%%%%%%%%%%%%%%%%%%%%%%%%%%%%%%%%%%%%%%%%%%%%%%%%%%%%%%%%%%%%%%%%%%%%%%%%
     Error in routine create_directory (1):
     unable to create directory /home/shaharpit/tmp/2404.save/K00004
 %%%%%%%%%%%%%%%%%%%%%%%%%%%%%%%%%%%%%%%%%%%%%%%%%%%%%%%%%%%%%%%%%%%%%%%%%%%%%%

     stopping ...

 %%%%%%%%%%%%%%%%%%%%%%%%%%%%%%%%%%%%%%%%%%%%%%%%%%%%%%%%%%%%%%%%%%%%%%%%%%%%%%
     Error in routine create_directory (1):
     unable to create directory /home/shaharpit/tmp/2404.save/K00004
 %%%%%%%%%%%%%%%%%%%%%%%%%%%%%%%%%%%%%%%%%%%%%%%%%%%%%%%%%%%%%%%%%%%%%%%%%%%%%%

     stopping ...
application called MPI_Abort(MPI_COMM_WORLD, 1) - process 2
Removing 2404 from /home/shaharpit/tmp
