
     Program PWSCF v.6.1 (svn rev. 13369) starts on 16Nov2022 at 10:54:27 

     This program is part of the open-source Quantum ESPRESSO suite
     for quantum simulation of materials; please cite
         "P. Giannozzi et al., J. Phys.:Condens. Matter 21 395502 (2009);
          URL http://www.quantum-espresso.org", 
     in publications or presentations arising from this work. More details at
     http://www.quantum-espresso.org/quote

     Parallel version (MPI), running on    32 processors
     R & G space division:  proc/nbgrp/npool/nimage =      32
     Reading input from ./hcp_100_0.9.in
Warning: card &IONS ignored
Warning: card 	ION_DYNAMICS='BFGS', ignored
Warning: card / ignored
Warning: card &CELL ignored
Warning: card / ignored

     Current dimensions of program PWSCF are:
     Max number of different atomic species (ntypx) = 10
     Max number of k-points (npk) =  40000
     Max angular momentum in pseudopotentials (lmaxx) =  3
               file Gd.rel-pbe-spdn-kjpaw_psl.1.0.0.UPF: wavefunction(s)  5P 5P renormalized
               file H.pbe-kjpaw_psl.0.1.UPF: wavefunction(s)  1S renormalized

     Subspace diagonalization in iterative solution of the eigenvalue problem:
     a serial algorithm will be used

 
     Parallelization info
     --------------------
     sticks:   dense  smooth     PW     G-vecs:    dense   smooth      PW
     Min          37      37     11                 1177     1177     201
     Max          38      38     12                 1182     1182     206
     Sum        1195    1195    373                37769    37769    6507
 


     bravais-lattice index     =            0
     lattice parameter (alat)  =      13.1873  a.u.
     unit-cell volume          =     792.7371 (a.u.)^3
     number of atoms/cell      =           12
     number of atomic types    =            2
     number of electrons       =        52.00
     number of Kohn-Sham states=           62
     kinetic-energy cutoff     =      50.0000  Ry
     charge density cutoff     =     200.0000  Ry
     convergence threshold     =      1.0E-06
     mixing beta               =       0.7000
     number of iterations used =            8  plain     mixing
     Exchange-correlation      =  SLA  PW   PBX  PBC ( 1  4  3  4 0 0)
     Non magnetic calculation with spin-orbit


     celldm(1)=  13.187265  celldm(2)=   0.000000  celldm(3)=   0.000000
     celldm(4)=   0.000000  celldm(5)=   0.000000  celldm(6)=   0.000000

     crystal axes: (cart. coord. in units of alat)
               a(1) = (   1.000000   0.000000   0.000000 )  
               a(2) = (  -0.250000   0.433008   0.000000 )  
               a(3) = (   0.000000   0.000000   0.798306 )  

     reciprocal axes: (cart. coord. in units 2 pi/alat)
               b(1) = (  1.000000  0.577357  0.000000 )  
               b(2) = (  0.000000  2.309428  0.000000 )  
               b(3) = (  0.000000  0.000000  1.252652 )  


     PseudoPot. # 1 for Gd read from file:
     /home/shaharpit/MeamGdH/dft/qe_potentials/Gd.rel-pbe-spdn-kjpaw_psl.1.0.0.UPF
     MD5 check sum: cf50ec46d1536b4a0251694df1946a53
     Pseudo is Projector augmented-wave + core cor, Zval = 11.0
     Generated using "atomic" code by A. Dal Corso  v.6.2.2
     Shape of augmentation charge: PSQ
     Using radial grid of 1263 points, 10 beta functions with: 
                l(1) =   0
                l(2) =   0
                l(3) =   1
                l(4) =   1
                l(5) =   1
                l(6) =   1
                l(7) =   2
                l(8) =   2
                l(9) =   2
               l(10) =   2
     Q(r) pseudized with 0 coefficients 


     PseudoPot. # 2 for  H read from file:
     /home/shaharpit/MeamGdH/dft/qe_potentials/H.pbe-kjpaw_psl.0.1.UPF
     MD5 check sum: fbb168fef676c0aaadbafd73f5b1efa8
     Pseudo is Projector augmented-wave, Zval =  1.0
     Generated using "atomic" code by A. Dal Corso  v.5.0.2 svn rev. 9415
     Shape of augmentation charge: PSQ
     Using radial grid of  929 points,  2 beta functions with: 
                l(1) =   0
                l(2) =   0
     Q(r) pseudized with 0 coefficients 


     atomic species   valence    mass     pseudopotential
        Gd            11.00   157.25000     Gd( 1.00)
        H              1.00     1.00794      H( 1.00)

     No symmetry found



   Cartesian axes

     site n.     atom                  positions (alat units)
         1           Gd  tau(   1) = (   0.2499750   0.1443214   0.5987297  )
         2           Gd  tau(   2) = (   0.7499750   0.1443214   0.5987297  )
         3           Gd  tau(   3) = (   0.0000250   0.2886861   0.1995766  )
         4           Gd  tau(   4) = (   0.5000250   0.2886861   0.1995766  )
         5           H   tau(   5) = (   0.2603500   0.1351850   0.7733990  )
         6           H   tau(   6) = (   0.7141750   0.1153965   0.7679706  )
         7           H   tau(   7) = (   0.7241000   0.3952493   0.4070563  )
         8           H   tau(   8) = (   0.2676250   0.4208401   0.3987539  )
         9           H   tau(   9) = (  -0.0020500   0.4258196   0.2957724  )
        10           H   tau(  10) = (   0.7594250   0.0214339   0.2383742  )
        11           H   tau(  11) = (  -0.0314500   0.1687863   0.6524557  )
        12           H   tau(  12) = (   0.5425750   0.1586973   0.6760057  )

     number of k points=    36  gaussian smearing, width (Ry)=  0.0100
                       cart. coord. in units 2pi/alat
        k(    1) = (   0.0000000   0.0000000   0.0000000), wk =   0.0156250
        k(    2) = (   0.0000000   0.0000000   0.3131630), wk =   0.0312500
        k(    3) = (   0.0000000   0.0000000  -0.6263261), wk =   0.0156250
        k(    4) = (   0.0000000   0.5773571   0.0000000), wk =   0.0312500
        k(    5) = (   0.0000000   0.5773571   0.3131630), wk =   0.0312500
        k(    6) = (   0.0000000   0.5773571  -0.6263261), wk =   0.0312500
        k(    7) = (   0.0000000  -1.1547142   0.0000000), wk =   0.0156250
        k(    8) = (   0.0000000  -1.1547142   0.3131630), wk =   0.0312500
        k(    9) = (   0.0000000  -1.1547142  -0.6263261), wk =   0.0156250
        k(   10) = (   0.2500000   0.1443393   0.0000000), wk =   0.0312500
        k(   11) = (   0.2500000   0.1443393   0.3131630), wk =   0.0312500
        k(   12) = (   0.2500000   0.1443393  -0.6263261), wk =   0.0312500
        k(   13) = (   0.2500000   0.7216964   0.0000000), wk =   0.0312500
        k(   14) = (   0.2500000   0.7216964   0.3131630), wk =   0.0312500
        k(   15) = (   0.2500000   0.7216964  -0.6263261), wk =   0.0312500
        k(   16) = (   0.2500000  -1.0103750   0.0000000), wk =   0.0312500
        k(   17) = (   0.2500000  -1.0103750   0.3131630), wk =   0.0312500
        k(   18) = (   0.2500000  -1.0103750  -0.6263261), wk =   0.0312500
        k(   19) = (   0.2500000  -0.4330178   0.0000000), wk =   0.0312500
        k(   20) = (   0.2500000  -0.4330178   0.3131630), wk =   0.0312500
        k(   21) = (   0.2500000  -0.4330178  -0.6263261), wk =   0.0312500
        k(   22) = (  -0.5000000  -0.2886786   0.0000000), wk =   0.0156250
        k(   23) = (  -0.5000000  -0.2886786   0.3131630), wk =   0.0312500
        k(   24) = (  -0.5000000  -0.2886786  -0.6263261), wk =   0.0156250
        k(   25) = (  -0.5000000   0.2886786   0.0000000), wk =   0.0312500
        k(   26) = (  -0.5000000   0.2886786   0.3131630), wk =   0.0312500
        k(   27) = (  -0.5000000   0.2886786  -0.6263261), wk =   0.0312500
        k(   28) = (  -0.5000000  -1.4433928   0.0000000), wk =   0.0156250
        k(   29) = (  -0.5000000  -1.4433928   0.3131630), wk =   0.0312500
        k(   30) = (  -0.5000000  -1.4433928  -0.6263261), wk =   0.0156250
        k(   31) = (   0.0000000  -0.5773571   0.3131630), wk =   0.0312500
        k(   32) = (  -0.2500000  -0.1443393   0.3131630), wk =   0.0312500
        k(   33) = (  -0.2500000  -0.7216964   0.3131630), wk =   0.0312500
        k(   34) = (  -0.2500000   1.0103750   0.3131630), wk =   0.0312500
        k(   35) = (  -0.2500000   0.4330178   0.3131630), wk =   0.0312500
        k(   36) = (   0.5000000  -0.2886786   0.3131630), wk =   0.0312500

     Dense  grid:    37769 G-vectors     FFT dimensions: (  60,  30,  48)

     Estimated max dynamical RAM per process >      17.25MB

     Estimated total allocated dynamical RAM >     552.10MB

     Initial potential from superposition of free atoms

     starting charge   51.92374, renormalised to   52.00000
     Starting wfc are  120 randomized atomic wfcs
     Checking if some PAW data can be deallocated... 

     total cpu time spent up to now is        4.6 secs

     per-process dynamical memory:    62.1 Mb

     Self-consistent Calculation

     iteration #  1     ecut=    50.00 Ry     beta=0.70
     Davidson diagonalization with overlap
     ethr =  1.00E-02,  avg # of iterations =  2.0

     total cpu time spent up to now is        8.9 secs

     total energy              =   -2245.53517951 Ry
     Harris-Foulkes estimate   =   -2246.18156114 Ry
     estimated scf accuracy    <       1.07599580 Ry

     iteration #  2     ecut=    50.00 Ry     beta=0.70
     Davidson diagonalization with overlap
     ethr =  2.07E-03,  avg # of iterations =  3.5

     total cpu time spent up to now is       13.7 secs

     total energy              =   -2245.32839018 Ry
     Harris-Foulkes estimate   =   -2246.08723448 Ry
     estimated scf accuracy    <       1.58409440 Ry

     iteration #  3     ecut=    50.00 Ry     beta=0.70
     Davidson diagonalization with overlap
     ethr =  2.07E-03,  avg # of iterations =  3.7

     total cpu time spent up to now is       18.6 secs

     total energy              =   -2245.73121016 Ry
     Harris-Foulkes estimate   =   -2245.95006293 Ry
     estimated scf accuracy    <       0.69520877 Ry

     iteration #  4     ecut=    50.00 Ry     beta=0.70
     Davidson diagonalization with overlap
     ethr =  1.34E-03,  avg # of iterations =  2.5

     total cpu time spent up to now is       22.3 secs

     total energy              =   -2245.81269495 Ry
     Harris-Foulkes estimate   =   -2245.82339313 Ry
     estimated scf accuracy    <       0.02755616 Ry

     iteration #  5     ecut=    50.00 Ry     beta=0.70
     Davidson diagonalization with overlap
     ethr =  5.30E-05,  avg # of iterations =  4.9

     total cpu time spent up to now is       27.8 secs

     total energy              =   -2245.81902781 Ry
     Harris-Foulkes estimate   =   -2245.82184318 Ry
     estimated scf accuracy    <       0.00745217 Ry

     iteration #  6     ecut=    50.00 Ry     beta=0.70
     Davidson diagonalization with overlap
     ethr =  1.43E-05,  avg # of iterations =  4.0

     total cpu time spent up to now is       32.6 secs

     total energy              =   -2245.82023372 Ry
     Harris-Foulkes estimate   =   -2245.82091173 Ry
     estimated scf accuracy    <       0.00186508 Ry

     iteration #  7     ecut=    50.00 Ry     beta=0.70
     Davidson diagonalization with overlap
     ethr =  3.59E-06,  avg # of iterations =  3.0

     total cpu time spent up to now is       36.9 secs

     total energy              =   -2245.82053122 Ry
     Harris-Foulkes estimate   =   -2245.82070895 Ry
     estimated scf accuracy    <       0.00045012 Ry

     iteration #  8     ecut=    50.00 Ry     beta=0.70
     Davidson diagonalization with overlap
     ethr =  8.66E-07,  avg # of iterations =  2.8

     total cpu time spent up to now is       40.9 secs

     total energy              =   -2245.82060893 Ry
     Harris-Foulkes estimate   =   -2245.82065434 Ry
     estimated scf accuracy    <       0.00010719 Ry

     iteration #  9     ecut=    50.00 Ry     beta=0.70
     Davidson diagonalization with overlap
     ethr =  2.06E-07,  avg # of iterations =  2.8

     total cpu time spent up to now is       44.9 secs

     total energy              =   -2245.82063032 Ry
     Harris-Foulkes estimate   =   -2245.82063834 Ry
     estimated scf accuracy    <       0.00002029 Ry

     iteration # 10     ecut=    50.00 Ry     beta=0.70
     Davidson diagonalization with overlap
     ethr =  3.90E-08,  avg # of iterations =  2.1

     total cpu time spent up to now is       48.7 secs

     End of self-consistent calculation

          k = 0.0000 0.0000 0.0000 (  4677 PWs)   bands (ev):

   -31.8352 -31.8352 -31.6853 -31.6853 -31.1115 -31.1115 -30.5980 -30.5980
   -13.0864 -13.0864 -12.8767 -12.8767 -12.3755 -12.3755 -12.0126 -12.0126
    -9.3411  -9.3411  -9.0737  -9.0737  -8.7907  -8.7907  -8.3491  -8.3491
    -8.0152  -8.0152  -7.5948  -7.5948  -7.3510  -7.3510  -6.8204  -6.8204
     4.6835   4.6835   6.6974   6.6974   7.1933   7.1933   7.6881   7.6881
     9.3521   9.3521   9.6529   9.6529  10.4007  10.4007  10.7248  10.7248
    11.1976  11.1976  12.5342  12.5342  13.1517  13.1517  13.3324  13.3324
    13.7124  13.7124  13.9419  13.9419  14.5756  14.5756

          k = 0.0000 0.0000 0.3132 (  4762 PWs)   bands (ev):

   -31.8328 -31.8328 -31.6844 -31.6844 -31.1141 -31.1141 -30.5994 -30.5994
   -13.0917 -13.0696 -12.8452 -12.8406 -12.4031 -12.3876 -12.0393 -12.0238
    -9.3830  -9.3261  -9.0449  -9.0243  -8.7996  -8.7127  -8.3721  -8.3500
    -8.0533  -7.9860  -7.6583  -7.6368  -7.3993  -7.3322  -6.8271  -6.8250
     5.0950   5.1392   6.6455   6.6897   6.8712   6.9085   8.0652   8.2018
     8.9917   9.0472   9.3185   9.4518  10.2405  10.3045  10.7316  10.9034
    11.2074  11.2817  12.2258  12.2701  13.1165  13.1618  13.3660  13.4042
    13.5085  13.5361  13.7391  13.8719  14.5628  14.5912

          k = 0.0000 0.0000-0.6263 (  4752 PWs)   bands (ev):

   -31.8303 -31.8303 -31.6835 -31.6835 -31.1167 -31.1167 -30.6008 -30.6008
   -13.0771 -13.0771 -12.8017 -12.8017 -12.4192 -12.4192 -12.0516 -12.0516
    -9.3714  -9.3714  -8.9868  -8.9868  -8.7199  -8.7199  -8.3777  -8.3777
    -8.0276  -8.0276  -7.7128  -7.7128  -7.3662  -7.3662  -6.8314  -6.8314
     5.7679   5.7679   6.5202   6.5202   6.7974   6.7974   7.9911   7.9911
     8.8090   8.8090   9.5278   9.5278   9.7756   9.7756  10.7940  10.7940
    11.5544  11.5544  12.0313  12.0313  13.1119  13.1119  13.3284  13.3284
    13.6497  13.6497  13.8966  13.8966  14.2931  14.2931

          k = 0.0000 0.5774 0.0000 (  4740 PWs)   bands (ev):

   -31.8056 -31.8052 -31.6724 -31.6721 -31.0941 -31.0938 -30.5833 -30.5830
   -13.1060 -13.0893 -12.9798 -12.9520 -12.4108 -12.3949 -12.0683 -12.0525
    -9.3796  -9.3346  -9.2164  -9.1745  -8.8140  -8.7048  -8.4976  -8.4735
    -8.0877  -8.0602  -7.7255  -7.6968  -7.4699  -7.4243  -7.1442  -7.1276
     5.7059   5.7798   7.0095   7.0773   7.1991   7.2897   8.0359   8.1763
     8.7594   8.9635   9.2653   9.4860   9.8887  10.0120  10.4463  10.7084
    11.8302  11.9168  12.6105  12.6608  12.7472  12.7604  12.9518  13.0346
    13.7486  13.8446  14.0132  14.1147  14.3501  14.4789

          k = 0.0000 0.5774 0.3132 (  4725 PWs)   bands (ev):

   -31.8042 -31.8039 -31.6716 -31.6713 -31.0958 -31.0955 -30.5843 -30.5839
   -13.1000 -13.0695 -12.9713 -12.9454 -12.4340 -12.4097 -12.0797 -12.0675
    -9.4155  -9.3232  -9.2180  -9.1284  -8.7702  -8.6871  -8.5103  -8.4993
    -8.1209  -8.0488  -7.7683  -7.6988  -7.4605  -7.3922  -7.1368  -7.1172
     6.0520   6.1119   6.9855   7.0433   7.1132   7.1867   8.1690   8.2680
     8.7015   8.8214   9.3057   9.4312   9.4856   9.5515  10.4866  10.5361
    11.7821  11.9273  12.1762  12.2144  12.6925  12.7648  13.2894  13.3301
    13.6831  13.7783  14.0244  14.0496  14.8461  14.9048

          k = 0.0000 0.5774-0.6263 (  4722 PWs)   bands (ev):

   -31.8032 -31.8029 -31.6707 -31.6704 -31.0972 -31.0968 -30.5850 -30.5847
   -13.1037 -13.0730 -12.9756 -12.9480 -12.4326 -12.4170 -12.0790 -12.0675
    -9.4523  -9.3149  -9.1995  -9.1304  -8.7320  -8.6584  -8.4811  -8.4521
    -8.1468  -8.0459  -7.8105  -7.7753  -7.4717  -7.3698  -7.1120  -7.1023
     6.0058   6.0768   7.0114   7.1006   7.3202   7.3352   8.2226   8.2445
     8.7352   8.8481   9.2600   9.3229   9.4398   9.5419  10.3623  10.5238
    11.8921  12.0076  12.1478  12.2268  12.6354  12.6728  12.8741  12.9119
    13.8744  13.9787  14.2326  14.2581  14.5088  14.5348

          k = 0.0000-1.1547 0.0000 (  4688 PWs)   bands (ev):

   -31.7820 -31.7820 -31.6522 -31.6522 -31.0775 -31.0775 -30.5672 -30.5672
   -13.1850 -13.1850 -13.0259 -13.0259 -12.4367 -12.4367 -12.0984 -12.0984
    -9.4132  -9.4132  -9.2619  -9.2619  -8.8339  -8.8339  -8.5658  -8.5658
    -8.0735  -8.0735  -7.8313  -7.8313  -7.4915  -7.4915  -7.3234  -7.3234
     6.1279   6.1279   7.1062   7.1062   7.4606   7.4606   7.7951   7.7951
     8.3964   8.3964   9.2248   9.2248   9.7160   9.7160  10.4455  10.4455
    11.4968  11.4968  12.7816  12.7816  13.1023  13.1023  13.3186  13.3186
    13.5820  13.5820  13.8174  13.8174  15.9696  15.9697

          k = 0.0000-1.1547 0.3132 (  4724 PWs)   bands (ev):

   -31.7818 -31.7818 -31.6517 -31.6517 -31.0779 -31.0779 -30.5673 -30.5673
   -13.2024 -13.1955 -13.0385 -13.0227 -12.4472 -12.4330 -12.1040 -12.0958
    -9.4288  -9.4008  -9.3141  -9.2503  -8.8462  -8.7673  -8.5639  -8.5178
    -8.1004  -8.0544  -7.8958  -7.7901  -7.4831  -7.4509  -7.3161  -7.2820
     6.0307   6.0325   6.8714   6.9262   7.3236   7.4085   7.9699   8.1050
     8.4861   8.5538   8.9971   9.1185   9.7262   9.8324  10.6748  10.7458
    11.3005  11.4181  12.4616  12.4891  13.1259  13.2094  13.5156  13.6388
    13.8127  13.8821  13.9623  14.0046  15.8182  15.9175

          k = 0.0000-1.1547-0.6263 (  4728 PWs)   bands (ev):

   -31.7815 -31.7815 -31.6513 -31.6513 -31.0783 -31.0783 -30.5675 -30.5675
   -13.2124 -13.2124 -13.0358 -13.0358 -12.4428 -12.4428 -12.1020 -12.1020
    -9.4146  -9.4146  -9.3080  -9.3080  -8.7761  -8.7761  -8.5166  -8.5166
    -8.0845  -8.0845  -7.8541  -7.8541  -7.4344  -7.4344  -7.2792  -7.2792
     5.9296   5.9296   6.8164   6.8164   7.5945   7.5945   7.8935   7.8935
     8.0915   8.0915   9.3390   9.3390  10.0538  10.0538  10.6258  10.6258
    11.5357  11.5357  12.1434  12.1434  13.4269  13.4269  13.8771  13.8771
    14.2195  14.2195  14.5233  14.5233  15.1396  15.1396

          k = 0.2500 0.1443 0.0000 (  4728 PWs)   bands (ev):

   -31.8298 -31.8296 -31.6911 -31.6909 -31.1100 -31.1099 -30.5997 -30.5997
   -13.0738 -13.0668 -12.8854 -12.8790 -12.3624 -12.3581 -12.0268 -12.0242
    -9.3289  -9.2868  -9.1162  -9.0749  -8.7655  -8.6973  -8.4419  -8.3800
    -7.9788  -7.9555  -7.6645  -7.6338  -7.3385  -7.3177  -6.9322  -6.9049
     5.0435   5.1232   6.8198   6.9577   7.0373   7.0971   7.8955   7.9832
     9.1332   9.2123   9.2808   9.3678  10.2996  10.3494  10.6171  10.6685
    11.3963  11.4378  12.4997  12.5924  13.1084  13.1449  13.3056  13.3351
    13.5878  13.6162  13.9300  14.0103  14.2699  14.3321

          k = 0.2500 0.1443 0.3132 (  4740 PWs)   bands (ev):

   -31.8276 -31.8274 -31.6900 -31.6898 -31.1125 -31.1124 -30.6013 -30.6012
   -13.0678 -13.0538 -12.8582 -12.8495 -12.3876 -12.3732 -12.0520 -12.0336
    -9.3291  -9.2929  -9.0895  -9.0358  -8.7401  -8.6469  -8.4407  -8.4080
    -8.0275  -7.9647  -7.7203  -7.6818  -7.3504  -7.2895  -6.9408  -6.9115
     5.4546   5.5290   6.9011   6.9636   7.1379   7.2276   7.6226   7.7171
     8.9815   9.0202   9.2337   9.3371  10.0663  10.1783  10.6039  10.7453
    11.3288  11.3798  12.2409  12.3360  13.1198  13.2032  13.2786  13.3584
    13.4624  13.5513  13.7290  13.8169  14.3508  14.3786

          k = 0.2500 0.1443-0.6263 (  4760 PWs)   bands (ev):

   -31.8255 -31.8253 -31.6887 -31.6886 -31.1151 -31.1150 -30.6028 -30.6027
   -13.0505 -13.0433 -12.8329 -12.8244 -12.4063 -12.4028 -12.0591 -12.0556
    -9.3285  -9.3002  -9.0448  -9.0111  -8.6841  -8.6612  -8.4318  -8.4080
    -8.0114  -7.9908  -7.7926  -7.7611  -7.3340  -7.3108  -6.9381  -6.9092
     6.0957   6.1405   6.6550   6.6644   6.9059   6.9625   7.9510   8.0825
     8.7456   8.8339   9.3464   9.4915   9.6022   9.7093  10.5365  10.6223
    11.6026  11.6211  12.1203  12.1514  12.9937  13.0336  13.2520  13.3451
    13.5368  13.6008  13.8085  13.8733  13.9929  14.0447

          k = 0.2500 0.7217 0.0000 (  4726 PWs)   bands (ev):

   -31.8031 -31.8028 -31.6749 -31.6747 -31.0931 -31.0928 -30.5845 -30.5842
   -13.1199 -13.1009 -12.9718 -12.9401 -12.3968 -12.3831 -12.0768 -12.0608
    -9.3503  -9.3371  -9.2044  -9.1794  -8.7741  -8.6692  -8.5583  -8.5208
    -8.0109  -7.9734  -7.8127  -7.7568  -7.4138  -7.3932  -7.2352  -7.1819
     6.2897   6.3470   6.6323   6.8086   7.2585   7.3914   8.1483   8.1940
     8.5806   8.7456   9.1284   9.2117   9.7214   9.8014  10.4290  10.4623
    12.0672  12.1062  12.3534  12.4817  12.9154  12.9750  13.1108  13.1507
    13.4542  13.5064  13.8167  13.9176  14.2564  14.4015

          k = 0.2500 0.7217 0.3132 (  4734 PWs)   bands (ev):

   -31.8019 -31.8016 -31.6739 -31.6737 -31.0947 -31.0944 -30.5855 -30.5851
   -13.1089 -13.0850 -12.9684 -12.9319 -12.4227 -12.3988 -12.0865 -12.0725
    -9.3433  -9.3263  -9.2232  -9.1576  -8.7292  -8.6942  -8.5501  -8.5145
    -8.0416  -7.9873  -7.8446  -7.7638  -7.3932  -7.3660  -7.2043  -7.1900
     6.4851   6.5250   6.6824   6.7594   7.2104   7.3381   8.2620   8.3944
     8.5892   8.6817   9.0719   9.1520   9.5392   9.6330  10.2232  10.3206
    11.9491  11.9843  12.3434  12.4173  12.8974  12.9230  13.0900  13.1378
    13.5677  13.5965  13.7671  13.8009  14.7897  14.8656

          k = 0.2500 0.7217-0.6263 (  4756 PWs)   bands (ev):

   -31.8010 -31.8007 -31.6729 -31.6727 -31.0960 -31.0957 -30.5864 -30.5860
   -13.1192 -13.0937 -12.9657 -12.9286 -12.4222 -12.4063 -12.0853 -12.0751
    -9.3382  -9.3199  -9.2438  -9.1628  -8.6882  -8.6611  -8.5117  -8.4623
    -8.0782  -8.0164  -7.8759  -7.8399  -7.3842  -7.3339  -7.2077  -7.1610
     6.3190   6.3960   6.7517   6.8680   7.5077   7.6155   8.1060   8.2116
     8.4799   8.6260   9.1321   9.2699   9.6478   9.8174  10.1981  10.2540
    11.8945  11.9308  12.3537  12.3819  12.6610  12.6876  12.9407  13.0134
    13.6533  13.7257  14.0963  14.2003  14.4653  14.5367

          k = 0.2500-1.0104 0.0000 (  4738 PWs)   bands (ev):

   -31.7820 -31.7820 -31.6523 -31.6522 -31.0774 -31.0774 -30.5672 -30.5672
   -13.1764 -13.1600 -13.0452 -13.0287 -12.4326 -12.4309 -12.0973 -12.0949
    -9.4162  -9.3864  -9.2921  -9.2571  -8.8056  -8.7707  -8.5784  -8.5623
    -8.0606  -8.0473  -7.8809  -7.8468  -7.5532  -7.5052  -7.3991  -7.3536
     6.4876   6.5099   7.1560   7.2095   7.4279   7.5239   7.9573   8.0944
     8.3694   8.4803   9.1072   9.1560   9.6476   9.7204  10.2091  10.3540
    11.5230  11.6414  12.5305  12.6344  13.0603  13.1047  13.2843  13.3809
    13.5912  13.6451  13.8218  13.8689  15.2202  15.3094

          k = 0.2500-1.0104 0.3132 (  4718 PWs)   bands (ev):

   -31.7817 -31.7817 -31.6518 -31.6518 -31.0779 -31.0779 -30.5674 -30.5674
   -13.1953 -13.1706 -13.0524 -13.0272 -12.4404 -12.4306 -12.1025 -12.0926
    -9.4236  -9.3921  -9.3114  -9.2642  -8.8130  -8.7298  -8.5602  -8.5128
    -8.0925  -8.0246  -7.9269  -7.8550  -7.5239  -7.4706  -7.3652  -7.3243
     6.3074   6.3493   6.9323   6.9997   7.4505   7.5508   8.2340   8.3918
     8.5837   8.6510   8.8803   9.0886   9.7500   9.8485  10.2576  10.3761
    11.6270  11.6962  12.0543  12.1042  12.8148  12.8753  13.4646  13.4897
    13.7188  13.8153  14.1375  14.1717  15.2658  15.3169

          k = 0.2500-1.0104-0.6263 (  4708 PWs)   bands (ev):

   -31.7815 -31.7815 -31.6514 -31.6514 -31.0783 -31.0783 -30.5676 -30.5676
   -13.2048 -13.1788 -13.0637 -13.0346 -12.4387 -12.4355 -12.1024 -12.0988
    -9.4361  -9.3811  -9.3392  -9.2767  -8.7637  -8.7249  -8.5322  -8.4941
    -8.1080  -8.0349  -7.9348  -7.8732  -7.4925  -7.4543  -7.3220  -7.2995
     6.2567   6.3186   6.9779   7.0025   7.6884   7.7383   7.9449   7.9662
     8.1698   8.2410   9.4092   9.4597   9.8387   9.9622  10.3716  10.4591
    11.6298  11.6558  11.8081  11.8285  12.8975  12.9200  13.4780  13.5048
    13.7872  13.8161  14.3876  14.4465  14.7869  14.8329

          k = 0.2500-0.4330 0.0000 (  4737 PWs)   bands (ev):

   -31.8091 -31.8087 -31.6688 -31.6686 -31.0946 -31.0943 -30.5828 -30.5825
   -13.1333 -13.1040 -12.9590 -12.9428 -12.4084 -12.3915 -12.0619 -12.0488
    -9.4026  -9.3571  -9.1834  -9.1584  -8.7668  -8.6943  -8.5068  -8.4673
    -8.0663  -8.0540  -7.7521  -7.7172  -7.5479  -7.4864  -7.1157  -7.0830
     5.6352   5.7367   7.0641   7.1193   7.3883   7.4420   8.1273   8.3537
     8.7309   8.9056   9.2071   9.4315  10.0362  10.0923  10.2919  10.4776
    11.6964  11.7656  12.5870  12.6935  12.8123  12.8454  12.9417  13.0348
    13.8140  13.8756  14.2237  14.2876  14.5371  14.5769

          k = 0.2500-0.4330 0.3132 (  4739 PWs)   bands (ev):

   -31.8078 -31.8075 -31.6681 -31.6679 -31.0960 -31.0957 -30.5836 -30.5832
   -13.1474 -13.1047 -12.9565 -12.9394 -12.4093 -12.3967 -12.0623 -12.0522
    -9.4565  -9.3390  -9.1611  -9.1511  -8.7349  -8.6650  -8.4807  -8.4161
    -8.1126  -8.0443  -7.8036  -7.7805  -7.5433  -7.4657  -7.1009  -7.0690
     5.7813   5.8884   7.1378   7.1822   7.4792   7.5293   8.1606   8.2917
     8.4204   8.4987   9.3319   9.4308  10.0981  10.2183  10.5683  10.6646
    11.4149  11.5187  12.1105  12.2109  12.7018  12.7448  12.9257  12.9749
    13.8878  13.9505  13.9838  14.0177  14.3654  14.4779

          k = 0.2500-0.4330-0.6263 (  4718 PWs)   bands (ev):

   -31.8063 -31.8059 -31.6675 -31.6673 -31.0977 -31.0974 -30.5844 -30.5841
   -13.1510 -13.0984 -12.9330 -12.9169 -12.4314 -12.4154 -12.0767 -12.0681
    -9.4855  -9.3354  -9.1465  -9.1054  -8.7216  -8.6468  -8.4839  -8.4487
    -8.1318  -8.0170  -7.8336  -7.8113  -7.5481  -7.4239  -7.0827  -7.0691
     6.2583   6.3358   7.0803   7.1634   7.3413   7.3915   8.0313   8.0907
     8.6192   8.7314   9.1515   9.2879   9.5744   9.7015  10.4933  10.6349
    11.6697  11.7290  12.0963  12.1545  12.3433  12.4388  12.9596  12.9964
    13.8289  13.8809  14.1054  14.1562  14.4599  14.4861

          k =-0.5000-0.2887 0.0000 (  4734 PWs)   bands (ev):

   -31.8237 -31.8237 -31.6973 -31.6973 -31.1084 -31.1084 -30.6015 -30.6015
   -13.0528 -13.0528 -12.8891 -12.8891 -12.3437 -12.3437 -12.0396 -12.0396
    -9.2709  -9.2709  -9.1211  -9.1211  -8.6297  -8.6297  -8.5179  -8.5179
    -7.8584  -7.8584  -7.7693  -7.7693  -7.2708  -7.2708  -7.0425  -7.0425
     5.8187   5.8187   6.2751   6.2751   7.6128   7.6128   8.4165   8.4165
     8.6289   8.6289   8.8567   8.8567  10.2630  10.2630  10.6264  10.6264
    11.8226  11.8226  12.2175  12.2175  13.1424  13.1424  13.3181  13.3181
    13.6485  13.6485  13.9898  13.9898  14.2192  14.2192

          k =-0.5000-0.2887 0.3132 (  4726 PWs)   bands (ev):

   -31.8219 -31.8219 -31.6957 -31.6957 -31.1109 -31.1108 -30.6031 -30.6031
   -13.0383 -13.0223 -12.8809 -12.8743 -12.3736 -12.3581 -12.0618 -12.0412
    -9.2598  -9.2309  -9.1365  -9.0919  -8.6266  -8.5881  -8.5416  -8.4819
    -7.9188  -7.8741  -7.8519  -7.7970  -7.2699  -7.2449  -7.0633  -7.0267
     6.0577   6.1127   6.4348   6.5120   7.5685   7.6502   8.0739   8.1808
     8.7019   8.7710   8.9574   9.0036   9.7139   9.7973  10.6287  10.6929
    11.6822  11.7324  12.2223  12.2964  12.8033  12.9226  13.4061  13.4607
    13.5433  13.6204  13.8592  13.9368  14.1943  14.2620

          k =-0.5000-0.2887-0.6263 (  4748 PWs)   bands (ev):

   -31.8200 -31.8200 -31.6942 -31.6942 -31.1133 -31.1133 -30.6048 -30.6048
   -13.0060 -13.0060 -12.8662 -12.8662 -12.3893 -12.3893 -12.0637 -12.0637
    -9.2216  -9.2216  -9.1063  -9.1063  -8.5913  -8.5913  -8.4945  -8.4945
    -7.9309  -7.9309  -7.8848  -7.8848  -7.2461  -7.2461  -7.0478  -7.0478
     6.5335   6.5335   6.6916   6.6916   7.3263   7.3263   8.0540   8.0540
     8.7325   8.7325   8.9895   8.9895   9.4964   9.4964  10.4979  10.4979
    11.7478  11.7478  12.1809  12.1809  13.0024  13.0024  13.1968  13.1968
    13.3951  13.3951  13.6927  13.6927  14.1269  14.1269

          k =-0.5000 0.2887 0.0000 (  4740 PWs)   bands (ev):

   -31.8067 -31.8063 -31.6711 -31.6710 -31.0936 -31.0933 -30.5840 -30.5837
   -13.1424 -13.1167 -12.9520 -12.9336 -12.3943 -12.3801 -12.0700 -12.0572
    -9.3854  -9.3423  -9.1905  -9.1506  -8.7071  -8.6627  -8.5819  -8.5135
    -7.9767  -7.9513  -7.8337  -7.7958  -7.5442  -7.4772  -7.1578  -7.1284
     5.9597   6.1045   7.0523   7.1171   7.5339   7.6571   8.2122   8.3985
     8.4519   8.5615   8.9486   9.0261   9.8033   9.9209  10.2683  10.3374
    11.8193  11.9159  12.3410  12.4091  13.1083  13.1491  13.3062  13.3473
    13.5382  13.6415  13.9787  14.0185  14.2314  14.3301

          k =-0.5000 0.2887 0.3132 (  4725 PWs)   bands (ev):

   -31.8054 -31.8050 -31.6703 -31.6702 -31.0953 -31.0949 -30.5849 -30.5846
   -13.1433 -13.1090 -12.9346 -12.9125 -12.4199 -12.3983 -12.0843 -12.0680
    -9.4011  -9.3232  -9.1760  -9.1370  -8.7194  -8.6590  -8.5531  -8.5196
    -7.9997  -7.9364  -7.8722  -7.8309  -7.5161  -7.4527  -7.1458  -7.1173
     6.1944   6.3172   7.0306   7.1039   7.5035   7.5983   8.3567   8.4534
     8.5663   8.5998   8.8813   8.8937   9.5944   9.6968  10.0672  10.1066
    12.1659  12.1906  12.2743  12.3384  12.4709  12.5729  13.2758  13.3235
    13.6768  13.7426  13.8163  13.8620  14.4231  14.4633

          k =-0.5000 0.2887-0.6263 (  4722 PWs)   bands (ev):

   -31.8042 -31.8038 -31.6696 -31.6695 -31.0966 -31.0963 -30.5857 -30.5854
   -13.1598 -13.1165 -12.9223 -12.9075 -12.4209 -12.4047 -12.0828 -12.0758
    -9.4178  -9.3199  -9.1679  -9.1335  -8.6735  -8.6539  -8.5203  -8.4512
    -8.0346  -7.9706  -7.9201  -7.9039  -7.4979  -7.4019  -7.1466  -7.1070
     6.5730   6.6609   6.8921   6.9536   7.5732   7.6593   7.8974   7.9851
     8.6005   8.6423   8.9586   9.0569   9.6602   9.7429  10.3787  10.4388
    11.5979  11.6158  12.1899  12.2413  12.6308  12.7188  13.0017  13.1131
    13.4393  13.5397  14.0885  14.1423  14.3651  14.3780

          k =-0.5000-1.4434 0.0000 (  4746 PWs)   bands (ev):

   -31.7819 -31.7819 -31.6523 -31.6523 -31.0774 -31.0774 -30.5673 -30.5673
   -13.1488 -13.1488 -13.0505 -13.0505 -12.4268 -12.4268 -12.0938 -12.0938
    -9.3903  -9.3903  -9.2866  -9.2866  -8.7280  -8.7280  -8.5883  -8.5883
    -8.0202  -8.0202  -7.9094  -7.9094  -7.5712  -7.5712  -7.4265  -7.4265
     6.9797   6.9797   7.2425   7.2425   7.5662   7.5662   8.2583   8.2583
     8.5473   8.5473   8.7287   8.7287   9.7476   9.7476   9.9853   9.9853
    11.8497  11.8497  12.3051  12.3051  13.1204  13.1204  13.4501  13.4501
    13.5849  13.5849  13.8185  13.8185  14.8051  14.8052

          k =-0.5000-1.4434 0.3132 (  4724 PWs)   bands (ev):

   -31.7817 -31.7817 -31.6519 -31.6519 -31.0778 -31.0778 -30.5675 -30.5675
   -13.1632 -13.1547 -13.0612 -13.0540 -12.4337 -12.4246 -12.0997 -12.0932
    -9.4149  -9.3939  -9.3148  -9.2639  -8.7391  -8.6942  -8.5854  -8.5144
    -8.0562  -8.0307  -7.9521  -7.9187  -7.5608  -7.5036  -7.4112  -7.3662
     6.8689   6.9001   7.1685   7.2020   7.6465   7.7334   8.1062   8.1683
     8.3477   8.4622   8.9844   9.1098   9.5954   9.7280  10.2492  10.3613
    11.5148  11.6255  12.3059  12.3461  12.5612  12.6596  12.9509  13.0125
    13.6486  13.7178  13.7941  13.8914  14.9670  15.0622

          k =-0.5000-1.4434-0.6263 (  4696 PWs)   bands (ev):

   -31.7815 -31.7815 -31.6514 -31.6514 -31.0783 -31.0783 -30.5676 -30.5676
   -13.1691 -13.1691 -13.0646 -13.0646 -12.4314 -12.4314 -12.0992 -12.0992
    -9.4167  -9.4167  -9.2950  -9.2950  -8.7048  -8.7048  -8.5148  -8.5148
    -8.0606  -8.0606  -7.9520  -7.9520  -7.5167  -7.5167  -7.3388  -7.3388
     6.8060   6.8060   7.1276   7.1276   7.7861   7.7861   7.9968   7.9968
     8.4142   8.4142   9.3501   9.3501   9.6691   9.6691  10.3744  10.3744
    11.3870  11.3870  11.8142  11.8142  12.6824  12.6824  12.8480  12.8480
    14.0201  14.0201  14.1437  14.1437  14.3710  14.3710

          k = 0.0000-0.5774 0.3132 (  4725 PWs)   bands (ev):

   -31.8045 -31.8042 -31.6716 -31.6713 -31.0955 -31.0952 -30.5841 -30.5838
   -13.1109 -13.0919 -12.9837 -12.9543 -12.4121 -12.4008 -12.0682 -12.0514
    -9.4214  -9.3215  -9.2076  -9.1720  -8.7722  -8.6728  -8.4593  -8.4357
    -8.1203  -8.0547  -7.7850  -7.7575  -7.4756  -7.4075  -7.1291  -7.0985
     5.6861   5.7617   7.0517   7.1363   7.3200   7.4151   8.1686   8.2525
     8.5700   8.7154   9.3987   9.5698   9.9979  10.0573  10.4569  10.5284
    11.6671  11.8111  12.2445  12.3471  12.8242  12.8594  13.0514  13.0752
    13.7720  13.8613  14.0715  14.1635  14.3920  14.4951

          k =-0.2500-0.1443 0.3132 (  4740 PWs)   bands (ev):

   -31.8277 -31.8275 -31.6899 -31.6897 -31.1125 -31.1124 -30.6013 -30.6012
   -13.0679 -13.0414 -12.8656 -12.8585 -12.3901 -12.3732 -12.0482 -12.0306
    -9.3434  -9.2718  -9.0787  -9.0564  -8.7445  -8.6790  -8.4301  -8.3807
    -7.9962  -7.9463  -7.7323  -7.7054  -7.3602  -7.3106  -6.9313  -6.8996
     5.4255   5.5217   6.5490   6.6407   7.0538   7.1209   8.5436   8.6211
     8.7564   8.8019   9.1719   9.2983   9.8735  10.0465  10.5992  10.6290
    11.5358  11.6265  12.4067  12.4440  12.8102  12.8653  13.3285  13.3775
    13.4479  13.4920  13.8123  13.8819  14.3222  14.3985

          k =-0.2500-0.7217 0.3132 (  4734 PWs)   bands (ev):

   -31.8022 -31.8018 -31.6740 -31.6737 -31.0944 -31.0941 -30.5854 -30.5850
   -13.1297 -13.1093 -12.9704 -12.9361 -12.3965 -12.3910 -12.0769 -12.0614
    -9.3451  -9.3261  -9.2442  -9.1696  -8.7314  -8.6424  -8.5079  -8.4810
    -8.0462  -7.9958  -7.8729  -7.8192  -7.4015  -7.3576  -7.2249  -7.1615
     6.1525   6.2254   6.7452   6.9247   7.4926   7.6172   7.9656   8.0169
     8.5792   8.7099   9.1350   9.2642   9.9857  10.0603  10.3351  10.4394
    11.7760  11.8191  12.2115  12.2831  12.9065  13.0043  13.2855  13.3506
    13.4990  13.5558  13.8290  13.8705  14.2756  14.3131

          k =-0.2500 1.0104 0.3132 (  4718 PWs)   bands (ev):

   -31.7817 -31.7817 -31.6518 -31.6518 -31.0779 -31.0779 -30.5674 -30.5674
   -13.1864 -13.1684 -13.0586 -13.0333 -12.4404 -12.4271 -12.1009 -12.0966
    -9.4347  -9.3711  -9.3420  -9.2410  -8.7918  -8.7347  -8.5785  -8.5117
    -8.0842  -8.0531  -7.9357  -7.8258  -7.5204  -7.4842  -7.3633  -7.3205
     6.4338   6.4838   7.1387   7.1669   7.4995   7.5932   7.8027   7.9078
     8.3415   8.4007   9.1145   9.1985   9.7168   9.8225  10.5276  10.5380
    11.3699  11.4861  12.3969  12.4317  12.9421  12.9988  13.2341  13.2670
    13.5716  13.6254  13.9213  13.9420  15.2491  15.3116

          k =-0.2500 0.4330 0.3132 (  4739 PWs)   bands (ev):

   -31.8075 -31.8072 -31.6681 -31.6679 -31.0963 -31.0960 -30.5837 -30.5833
   -13.1375 -13.0958 -12.9366 -12.9215 -12.4313 -12.4090 -12.0775 -12.0630
    -9.4457  -9.3412  -9.1713  -9.1141  -8.7546  -8.6607  -8.5124  -8.5042
    -8.1043  -8.0204  -7.7793  -7.7345  -7.5475  -7.4613  -7.0992  -7.0759
     6.0477   6.1164   6.9886   7.0543   7.2962   7.3700   8.2466   8.4088
     8.7117   8.9108   9.2160   9.2502   9.4423   9.5602  10.3399  10.4591
    11.8944  11.9797  12.2093  12.2408  12.4338  12.4955  13.4355  13.4788
    13.7130  13.7770  13.9687  14.0588  14.5759  14.7006

          k = 0.5000-0.2887 0.3132 (  4725 PWs)   bands (ev):

   -31.8056 -31.8052 -31.6704 -31.6703 -31.0949 -31.0946 -30.5848 -30.5845
   -13.1587 -13.1233 -12.9427 -12.9279 -12.3950 -12.3855 -12.0718 -12.0615
    -9.4094  -9.3307  -9.1870  -9.1431  -8.6807  -8.6316  -8.5490  -8.4561
    -8.0215  -7.9799  -7.8909  -7.8640  -7.5054  -7.4372  -7.1637  -7.1104
     6.2096   6.3534   6.9349   7.0028   7.6089   7.7307   8.0316   8.1441
     8.3895   8.4474   9.0122   9.1247  10.0586  10.1350  10.4265  10.5123
    11.4448  11.5285  12.1406  12.2034  12.8713  12.9318  13.0931  13.2030
    13.6279  13.7034  13.7313  13.7849  14.3489  14.4241

     the Fermi energy is    12.5709 ev

!    total energy              =   -2245.82063400 Ry
     Harris-Foulkes estimate   =   -2245.82063427 Ry
     estimated scf accuracy    <       0.00000044 Ry

     total all-electron energy =    -90250.164011 Ry

     The total energy is the sum of the following terms:

     one-electron contribution =     -28.04688426 Ry
     hartree contribution      =      41.77344172 Ry
     xc contribution           =    -259.38674498 Ry
     ewald contribution        =    -252.01222036 Ry
     one-center paw contrib.   =   -1748.14623741 Ry
     smearing contrib. (-TS)   =      -0.00198870 Ry

     convergence has been achieved in  10 iterations

     Writing output data file 2325.save
 
     init_run     :      2.36s CPU      3.00s WALL (       1 calls)
     electrons    :     42.69s CPU     44.38s WALL (       1 calls)

     Called by init_run:
     wfcinit      :      2.05s CPU      2.30s WALL (       1 calls)
     potinit      :      0.14s CPU      0.21s WALL (       1 calls)

     Called by electrons:
     c_bands      :     35.32s CPU     36.36s WALL (      10 calls)
     sum_band     :      5.26s CPU      5.45s WALL (      10 calls)
     v_of_rho     :      0.03s CPU      0.03s WALL (      11 calls)
     newd         :      0.83s CPU      0.86s WALL (      11 calls)
     PAW_pot      :      1.35s CPU      1.41s WALL (      11 calls)
     mix_rho      :      0.06s CPU      0.08s WALL (      10 calls)

     Called by c_bands:
     init_us_2    :      0.16s CPU      0.16s WALL (     756 calls)
     cegterg      :     33.32s CPU     34.32s WALL (     360 calls)

     Called by sum_band:
     sum_band:bec :      1.66s CPU      1.67s WALL (     360 calls)
     addusdens    :      0.16s CPU      0.17s WALL (      10 calls)

     Called by *egterg:
     h_psi        :     18.44s CPU     19.38s WALL (    1522 calls)
     s_psi        :      2.17s CPU      2.18s WALL (    1522 calls)
     g_psi        :      0.06s CPU      0.06s WALL (    1126 calls)
     cdiaghg      :     10.03s CPU     10.25s WALL (    1486 calls)

     Called by h_psi:
     h_psi:pot    :     18.28s CPU     19.23s WALL (    1522 calls)
     h_psi:calbec :      1.17s CPU      1.24s WALL (    1522 calls)
     vloc_psi     :     14.79s CPU     15.65s WALL (    1522 calls)
     add_vuspsi   :      2.31s CPU      2.33s WALL (    1522 calls)

     General routines
     calbec       :      1.56s CPU      1.63s WALL (    1882 calls)
     fft          :      0.03s CPU      0.14s WALL (     205 calls)
     fftw         :     15.86s CPU     16.78s WALL (  288752 calls)
     davcio       :      0.00s CPU      0.01s WALL (      36 calls)
 
     Parallel routines
     fft_scatter  :      9.24s CPU      9.85s WALL (  288957 calls)
 
     PWSCF        :  1m19.28s CPU     2m12.92s WALL

 
   This run was terminated on:  10:56:40  16Nov2022            

=------------------------------------------------------------------------------=
   JOB DONE.
=------------------------------------------------------------------------------=
Removing 2325 from /home/shaharpit/tmp
