
     Program PWSCF v.6.1 (svn rev. 13369) starts on 16Nov2022 at 10:54:52 

     This program is part of the open-source Quantum ESPRESSO suite
     for quantum simulation of materials; please cite
         "P. Giannozzi et al., J. Phys.:Condens. Matter 21 395502 (2009);
          URL http://www.quantum-espresso.org", 
     in publications or presentations arising from this work. More details at
     http://www.quantum-espresso.org/quote

     Parallel version (MPI), running on    32 processors
     R & G space division:  proc/nbgrp/npool/nimage =      32
     Reading input from ./hcp_100_1.1.in
Warning: card &IONS ignored
Warning: card 	ION_DYNAMICS='BFGS', ignored
Warning: card / ignored
Warning: card &CELL ignored
Warning: card / ignored

     Current dimensions of program PWSCF are:
     Max number of different atomic species (ntypx) = 10
     Max number of k-points (npk) =  40000
     Max angular momentum in pseudopotentials (lmaxx) =  3
               file Gd.rel-pbe-spdn-kjpaw_psl.1.0.0.UPF: wavefunction(s)  5P 5P renormalized
               file H.pbe-kjpaw_psl.0.1.UPF: wavefunction(s)  1S renormalized

     Subspace diagonalization in iterative solution of the eigenvalue problem:
     a serial algorithm will be used

 
     Parallelization info
     --------------------
     sticks:   dense  smooth     PW     G-vecs:    dense   smooth      PW
     Min          42      42     13                 1444     1444     243
     Max          43      43     14                 1451     1451     247
     Sum        1357    1357    423                46279    46279    7837
 


     bravais-lattice index     =            0
     lattice parameter (alat)  =      14.0996  a.u.
     unit-cell volume          =     968.9289 (a.u.)^3
     number of atoms/cell      =           12
     number of atomic types    =            2
     number of electrons       =        52.00
     number of Kohn-Sham states=           62
     kinetic-energy cutoff     =      50.0000  Ry
     charge density cutoff     =     200.0000  Ry
     convergence threshold     =      1.0E-06
     mixing beta               =       0.7000
     number of iterations used =            8  plain     mixing
     Exchange-correlation      =  SLA  PW   PBX  PBC ( 1  4  3  4 0 0)
     Non magnetic calculation with spin-orbit


     celldm(1)=  14.099625  celldm(2)=   0.000000  celldm(3)=   0.000000
     celldm(4)=   0.000000  celldm(5)=   0.000000  celldm(6)=   0.000000

     crystal axes: (cart. coord. in units of alat)
               a(1) = (   1.000000   0.000000   0.000000 )  
               a(2) = (  -0.250000   0.433013   0.000000 )  
               a(3) = (   0.000000   0.000000   0.798303 )  

     reciprocal axes: (cart. coord. in units 2 pi/alat)
               b(1) = (  1.000000  0.577349  0.000000 )  
               b(2) = (  0.000000  2.309397  0.000000 )  
               b(3) = (  0.000000  0.000000  1.252657 )  


     PseudoPot. # 1 for Gd read from file:
     /home/shaharpit/MeamGdH/dft/qe_potentials/Gd.rel-pbe-spdn-kjpaw_psl.1.0.0.UPF
     MD5 check sum: cf50ec46d1536b4a0251694df1946a53
     Pseudo is Projector augmented-wave + core cor, Zval = 11.0
     Generated using "atomic" code by A. Dal Corso  v.6.2.2
     Shape of augmentation charge: PSQ
     Using radial grid of 1263 points, 10 beta functions with: 
                l(1) =   0
                l(2) =   0
                l(3) =   1
                l(4) =   1
                l(5) =   1
                l(6) =   1
                l(7) =   2
                l(8) =   2
                l(9) =   2
               l(10) =   2
     Q(r) pseudized with 0 coefficients 


     PseudoPot. # 2 for  H read from file:
     /home/shaharpit/MeamGdH/dft/qe_potentials/H.pbe-kjpaw_psl.0.1.UPF
     MD5 check sum: fbb168fef676c0aaadbafd73f5b1efa8
     Pseudo is Projector augmented-wave, Zval =  1.0
     Generated using "atomic" code by A. Dal Corso  v.5.0.2 svn rev. 9415
     Shape of augmentation charge: PSQ
     Using radial grid of  929 points,  2 beta functions with: 
                l(1) =   0
                l(2) =   0
     Q(r) pseudized with 0 coefficients 


     atomic species   valence    mass     pseudopotential
        Gd            11.00   157.25000     Gd( 1.00)
        H              1.00     1.00794      H( 1.00)

     No symmetry found



   Cartesian axes

     site n.     atom                  positions (alat units)
         1           Gd  tau(   1) = (   0.2499750   0.1443234   0.5987274  )
         2           Gd  tau(   2) = (   0.7499750   0.1443234   0.5987274  )
         3           Gd  tau(   3) = (   0.0000250   0.2886901   0.1995758  )
         4           Gd  tau(   4) = (   0.5000250   0.2886901   0.1995758  )
         5           H   tau(   5) = (   0.2603500   0.1351868   0.7733962  )
         6           H   tau(   6) = (   0.7141750   0.1153981   0.7679677  )
         7           H   tau(   7) = (   0.7241000   0.3952547   0.4070548  )
         8           H   tau(   8) = (   0.2676250   0.4208458   0.3987525  )
         9           H   tau(   9) = (  -0.0020500   0.4258254   0.2957713  )
        10           H   tau(  10) = (   0.7594250   0.0214342   0.2383733  )
        11           H   tau(  11) = (  -0.0314500   0.1687886   0.6524532  )
        12           H   tau(  12) = (   0.5425750   0.1586994   0.6760032  )

     number of k points=    36  gaussian smearing, width (Ry)=  0.0100
                       cart. coord. in units 2pi/alat
        k(    1) = (   0.0000000   0.0000000   0.0000000), wk =   0.0156250
        k(    2) = (   0.0000000   0.0000000   0.3131642), wk =   0.0312500
        k(    3) = (   0.0000000   0.0000000  -0.6263284), wk =   0.0156250
        k(    4) = (   0.0000000   0.5773493   0.0000000), wk =   0.0312500
        k(    5) = (   0.0000000   0.5773493   0.3131642), wk =   0.0312500
        k(    6) = (   0.0000000   0.5773493  -0.6263284), wk =   0.0312500
        k(    7) = (   0.0000000  -1.1546985   0.0000000), wk =   0.0156250
        k(    8) = (   0.0000000  -1.1546985   0.3131642), wk =   0.0312500
        k(    9) = (   0.0000000  -1.1546985  -0.6263284), wk =   0.0156250
        k(   10) = (   0.2500000   0.1443373   0.0000000), wk =   0.0312500
        k(   11) = (   0.2500000   0.1443373   0.3131642), wk =   0.0312500
        k(   12) = (   0.2500000   0.1443373  -0.6263284), wk =   0.0312500
        k(   13) = (   0.2500000   0.7216866   0.0000000), wk =   0.0312500
        k(   14) = (   0.2500000   0.7216866   0.3131642), wk =   0.0312500
        k(   15) = (   0.2500000   0.7216866  -0.6263284), wk =   0.0312500
        k(   16) = (   0.2500000  -1.0103612   0.0000000), wk =   0.0312500
        k(   17) = (   0.2500000  -1.0103612   0.3131642), wk =   0.0312500
        k(   18) = (   0.2500000  -1.0103612  -0.6263284), wk =   0.0312500
        k(   19) = (   0.2500000  -0.4330119   0.0000000), wk =   0.0312500
        k(   20) = (   0.2500000  -0.4330119   0.3131642), wk =   0.0312500
        k(   21) = (   0.2500000  -0.4330119  -0.6263284), wk =   0.0312500
        k(   22) = (  -0.5000000  -0.2886746   0.0000000), wk =   0.0156250
        k(   23) = (  -0.5000000  -0.2886746   0.3131642), wk =   0.0312500
        k(   24) = (  -0.5000000  -0.2886746  -0.6263284), wk =   0.0156250
        k(   25) = (  -0.5000000   0.2886746   0.0000000), wk =   0.0312500
        k(   26) = (  -0.5000000   0.2886746   0.3131642), wk =   0.0312500
        k(   27) = (  -0.5000000   0.2886746  -0.6263284), wk =   0.0312500
        k(   28) = (  -0.5000000  -1.4433732   0.0000000), wk =   0.0156250
        k(   29) = (  -0.5000000  -1.4433732   0.3131642), wk =   0.0312500
        k(   30) = (  -0.5000000  -1.4433732  -0.6263284), wk =   0.0156250
        k(   31) = (   0.0000000  -0.5773493   0.3131642), wk =   0.0312500
        k(   32) = (  -0.2500000  -0.1443373   0.3131642), wk =   0.0312500
        k(   33) = (  -0.2500000  -0.7216866   0.3131642), wk =   0.0312500
        k(   34) = (  -0.2500000   1.0103612   0.3131642), wk =   0.0312500
        k(   35) = (  -0.2500000   0.4330119   0.3131642), wk =   0.0312500
        k(   36) = (   0.5000000  -0.2886746   0.3131642), wk =   0.0312500

     Dense  grid:    46279 G-vectors     FFT dimensions: (  64,  32,  54)

     Estimated max dynamical RAM per process >      20.58MB

     Estimated total allocated dynamical RAM >     658.66MB

     Initial potential from superposition of free atoms

     starting charge   51.92374, renormalised to   52.00000
     Starting wfc are  120 randomized atomic wfcs
     Checking if some PAW data can be deallocated... 

     total cpu time spent up to now is        4.9 secs

     per-process dynamical memory:    71.0 Mb

     Self-consistent Calculation

     iteration #  1     ecut=    50.00 Ry     beta=0.70
     Davidson diagonalization with overlap
     ethr =  1.00E-02,  avg # of iterations =  2.0

     total cpu time spent up to now is        9.8 secs

     total energy              =   -2246.12050310 Ry
     Harris-Foulkes estimate   =   -2246.82475745 Ry
     estimated scf accuracy    <       1.16217288 Ry

     iteration #  2     ecut=    50.00 Ry     beta=0.70
     Davidson diagonalization with overlap
     ethr =  2.23E-03,  avg # of iterations =  3.8

     total cpu time spent up to now is       15.8 secs

     total energy              =   -2245.89201302 Ry
     Harris-Foulkes estimate   =   -2246.76057006 Ry
     estimated scf accuracy    <       1.86721493 Ry

     iteration #  3     ecut=    50.00 Ry     beta=0.70
     Davidson diagonalization with overlap
     ethr =  2.23E-03,  avg # of iterations =  4.0

     total cpu time spent up to now is       21.8 secs

     total energy              =   -2246.35198284 Ry
     Harris-Foulkes estimate   =   -2246.58135307 Ry
     estimated scf accuracy    <       0.73732972 Ry

     iteration #  4     ecut=    50.00 Ry     beta=0.70
     Davidson diagonalization with overlap
     ethr =  1.42E-03,  avg # of iterations =  2.7

     total cpu time spent up to now is       26.4 secs

     total energy              =   -2246.43814319 Ry
     Harris-Foulkes estimate   =   -2246.44821272 Ry
     estimated scf accuracy    <       0.02657946 Ry

     iteration #  5     ecut=    50.00 Ry     beta=0.70
     Davidson diagonalization with overlap
     ethr =  5.11E-05,  avg # of iterations =  5.3

     total cpu time spent up to now is       33.2 secs

     total energy              =   -2246.44398301 Ry
     Harris-Foulkes estimate   =   -2246.44683543 Ry
     estimated scf accuracy    <       0.00729375 Ry

     iteration #  6     ecut=    50.00 Ry     beta=0.70
     Davidson diagonalization with overlap
     ethr =  1.40E-05,  avg # of iterations =  4.4

     total cpu time spent up to now is       39.1 secs

     total energy              =   -2246.44509335 Ry
     Harris-Foulkes estimate   =   -2246.44612936 Ry
     estimated scf accuracy    <       0.00318026 Ry

     iteration #  7     ecut=    50.00 Ry     beta=0.70
     Davidson diagonalization with overlap
     ethr =  6.12E-06,  avg # of iterations =  3.1

     total cpu time spent up to now is       44.2 secs

     total energy              =   -2246.44554275 Ry
     Harris-Foulkes estimate   =   -2246.44578776 Ry
     estimated scf accuracy    <       0.00065809 Ry

     iteration #  8     ecut=    50.00 Ry     beta=0.70
     Davidson diagonalization with overlap
     ethr =  1.27E-06,  avg # of iterations =  3.2

     total cpu time spent up to now is       49.3 secs

     total energy              =   -2246.44565272 Ry
     Harris-Foulkes estimate   =   -2246.44571602 Ry
     estimated scf accuracy    <       0.00015419 Ry

     iteration #  9     ecut=    50.00 Ry     beta=0.70
     Davidson diagonalization with overlap
     ethr =  2.97E-07,  avg # of iterations =  3.1

     total cpu time spent up to now is       54.3 secs

     total energy              =   -2246.44568082 Ry
     Harris-Foulkes estimate   =   -2246.44569683 Ry
     estimated scf accuracy    <       0.00004345 Ry

     iteration # 10     ecut=    50.00 Ry     beta=0.70
     Davidson diagonalization with overlap
     ethr =  8.36E-08,  avg # of iterations =  2.3

     total cpu time spent up to now is       59.1 secs

     total energy              =   -2246.44568817 Ry
     Harris-Foulkes estimate   =   -2246.44568889 Ry
     estimated scf accuracy    <       0.00000154 Ry

     iteration # 11     ecut=    50.00 Ry     beta=0.70
     Davidson diagonalization with overlap
     ethr =  2.97E-09,  avg # of iterations =  3.7

     total cpu time spent up to now is       64.9 secs

     End of self-consistent calculation

          k = 0.0000 0.0000 0.0000 (  5761 PWs)   bands (ev):

   -34.6224 -34.6224 -34.5147 -34.5147 -33.9299 -33.9299 -33.2455 -33.2455
   -15.6901 -15.6901 -15.5373 -15.5373 -15.0059 -15.0059 -14.4759 -14.4759
   -11.9001 -11.9001 -11.7010 -11.7010 -11.2271 -11.2271 -10.9485 -10.9485
   -10.8696 -10.8696 -10.5807 -10.5807 -10.2180 -10.2180  -9.7308  -9.7308
     2.5821   2.5821   4.7240   4.7240   5.1159   5.1159   5.3011   5.3011
     6.6387   6.6387   6.9405   6.9405   7.4316   7.4316   7.9207   7.9207
     8.7580   8.7580   9.9150   9.9150  10.5309  10.5309  10.6684  10.6684
    11.0859  11.0859  11.2024  11.2024  11.8071  11.8071

          k = 0.0000 0.0000 0.3132 (  5777 PWs)   bands (ev):

   -34.6220 -34.6220 -34.5146 -34.5146 -33.9303 -33.9303 -33.2457 -33.2457
   -15.6907 -15.6853 -15.5305 -15.5297 -15.0147 -15.0101 -14.4815 -14.4769
   -11.9080 -11.8911 -11.6916 -11.6850 -11.2334 -11.2164 -10.9480 -10.9075
   -10.8846 -10.8377 -10.6441 -10.6227 -10.2273 -10.2102  -9.7337  -9.7309
     2.9113   2.9482   4.5610   4.6200   4.8576   4.8990   5.5922   5.7178
     6.2871   6.3458   6.8311   6.9289   7.2527   7.3054   7.8816   7.9764
     8.8693   8.9209   9.6736   9.7011  10.5342  10.5567  10.7391  10.7573
    10.8883  10.9466  11.0026  11.0728  11.8369  11.8824

          k = 0.0000 0.0000-0.6263 (  5758 PWs)   bands (ev):

   -34.6216 -34.6216 -34.5144 -34.5144 -33.9308 -33.9308 -33.2460 -33.2460
   -15.6862 -15.6862 -15.5224 -15.5224 -15.0191 -15.0191 -14.4826 -14.4826
   -11.9000 -11.9000 -11.6739 -11.6739 -11.2234 -11.2234 -10.9223 -10.9223
   -10.8118 -10.8118 -10.7132 -10.7132 -10.2182 -10.2182  -9.7337  -9.7337
     3.5318   3.5318   4.1823   4.1823   4.8270   4.8270   5.5810   5.5810
     6.3633   6.3633   6.7956   6.7956   7.0186   7.0186   7.9590   7.9590
     9.0689   9.0689   9.5436   9.5436  10.4285  10.4285  10.7511  10.7511
    10.9476  10.9476  11.0599  11.0599  11.6304  11.6304

          k = 0.0000 0.5773 0.0000 (  5800 PWs)   bands (ev):

   -34.6123 -34.6123 -34.5079 -34.5078 -33.9228 -33.9227 -33.2383 -33.2382
   -15.7064 -15.6956 -15.5970 -15.5833 -15.0260 -15.0207 -14.4978 -14.4920
   -11.9230 -11.9012 -11.7986 -11.7706 -11.2621 -11.2352 -10.9621 -10.9378
   -10.9048 -10.8810 -10.6636 -10.6503 -10.2762 -10.2661  -9.8811  -9.8727
     3.4820   3.5608   4.8200   4.9615   5.0357   5.1006   5.6658   5.6979
     6.2009   6.3505   6.6584   6.8207   7.1980   7.2589   7.6837   7.8063
     9.3472   9.4127   9.9702  10.0633  10.1608  10.1845  10.3424  10.3727
    11.0222  11.1132  11.3169  11.4140  11.4926  11.5941

          k = 0.0000 0.5773 0.3132 (  5776 PWs)   bands (ev):

   -34.6121 -34.6120 -34.5078 -34.5077 -33.9231 -33.9230 -33.2385 -33.2384
   -15.7051 -15.6911 -15.5950 -15.5812 -15.0327 -15.0251 -14.5010 -14.4951
   -11.9244 -11.8932 -11.8020 -11.7596 -11.2586 -11.2452 -10.9537 -10.9275
   -10.9015 -10.8812 -10.6933 -10.6600 -10.2745 -10.2558  -9.8761  -9.8714
     3.8300   3.8905   4.7928   4.8547   4.9450   5.0577   5.6862   5.7499
     6.1662   6.2449   6.6201   6.6951   6.9108   6.9583   7.6591   7.6949
     9.3731   9.4573   9.6162   9.6433  10.1204  10.1663  10.6417  10.6705
    11.0067  11.0961  11.3510  11.3696  11.8777  11.9354

          k = 0.0000 0.5773-0.6263 (  5782 PWs)   bands (ev):

   -34.6120 -34.6119 -34.5076 -34.5075 -33.9233 -33.9232 -33.2386 -33.2385
   -15.7055 -15.6913 -15.5950 -15.5806 -15.0340 -15.0280 -14.5023 -14.4971
   -11.9322 -11.8902 -11.7990 -11.7630 -11.2401 -11.2328 -10.9610 -10.9196
   -10.8662 -10.8204 -10.7597 -10.7193 -10.2737 -10.2519  -9.8719  -9.8648
     3.8863   3.9681   4.9133   4.9679   5.0055   5.0359   5.7440   5.7892
     6.1098   6.1985   6.5811   6.7000   6.7960   6.8371   7.5453   7.6772
     9.2889   9.3646   9.6787   9.7419  10.0220  10.0558  10.3793  10.4129
    11.1808  11.2641  11.4521  11.4726  11.7674  11.7831

          k = 0.0000-1.1547 0.0000 (  5796 PWs)   bands (ev):

   -34.6036 -34.6036 -34.4995 -34.4995 -33.9157 -33.9157 -33.2309 -33.2309
   -15.7355 -15.7355 -15.6286 -15.6286 -15.0428 -15.0428 -14.5144 -14.5144
   -11.9637 -11.9637 -11.8357 -11.8357 -11.2840 -11.2840 -10.9529 -10.9529
   -10.8695 -10.8695 -10.7562 -10.7562 -10.3089 -10.3089  -9.9777  -9.9777
     4.2969   4.2969   5.0356   5.0356   5.2728   5.2728   5.3553   5.3553
     5.8214   5.8214   6.5494   6.5494   7.0773   7.0773   7.7256   7.7256
     9.0047   9.0047  10.0186  10.0186  10.4764  10.4764  10.7143  10.7143
    10.8414  10.8414  11.0631  11.0631  12.4316  12.4316

          k = 0.0000-1.1547 0.3132 (  5768 PWs)   bands (ev):

   -34.6036 -34.6036 -34.4994 -34.4994 -33.9158 -33.9158 -33.2309 -33.2309
   -15.7385 -15.7375 -15.6309 -15.6282 -15.0461 -15.0428 -14.5177 -14.5150
   -11.9688 -11.9590 -11.8506 -11.8319 -11.2872 -11.2724 -10.9505 -10.9278
   -10.8936 -10.8588 -10.7834 -10.7294 -10.3111 -10.2943  -9.9759  -9.9635
     4.1622   4.1669   4.8873   4.9505   5.2092   5.2857   5.5656   5.6682
     5.9598   6.0462   6.4073   6.5286   7.0066   7.0579   7.7033   7.7866
     8.9903   9.0544   9.7909   9.8097  10.5454  10.6013  10.7478  10.8213
    10.8502  10.8774  11.1966  11.2245  12.4271  12.5191

          k = 0.0000-1.1547-0.6263 (  5800 PWs)   bands (ev):

   -34.6035 -34.6035 -34.4994 -34.4994 -33.9159 -33.9159 -33.2309 -33.2309
   -15.7405 -15.7405 -15.6305 -15.6305 -15.0462 -15.0462 -14.5184 -14.5184
   -11.9641 -11.9641 -11.8469 -11.8469 -11.2756 -11.2756 -10.9274 -10.9274
   -10.8863 -10.8863 -10.7514 -10.7514 -10.2962 -10.2962  -9.9618  -9.9618
     4.0545   4.0545   4.8585   4.8585   5.3918   5.3918   5.7511   5.7511
     5.8333   5.8333   6.5546   6.5546   7.1000   7.1000   7.6903   7.6903
     9.1693   9.1693   9.5205   9.5205  10.5407  10.5407  10.9594  10.9594
    11.0166  11.0166  11.6590  11.6590  12.2188  12.2188

          k = 0.2500 0.1443 0.0000 (  5751 PWs)   bands (ev):

   -34.6212 -34.6212 -34.5160 -34.5159 -33.9297 -33.9297 -33.2457 -33.2457
   -15.6832 -15.6798 -15.5456 -15.5423 -15.0032 -15.0026 -14.4780 -14.4770
   -11.8882 -11.8769 -11.7181 -11.7043 -11.2330 -11.2172 -10.9679 -10.9454
   -10.8492 -10.8328 -10.6129 -10.5958 -10.2147 -10.2070  -9.7709  -9.7625
     2.8480   2.9112   4.4827   4.6237   4.9732   5.0172   5.6469   5.7301
     6.4998   6.5377   6.7025   6.7783   7.3722   7.4157   7.7961   7.8294
     9.0256   9.0590   9.9369  10.0140  10.4941  10.5266  10.6372  10.6580
    10.9270  10.9647  11.2022  11.2777  11.5678  11.6364

          k = 0.2500 0.1443 0.3132 (  5768 PWs)   bands (ev):

   -34.6208 -34.6208 -34.5158 -34.5157 -33.9301 -33.9301 -33.2460 -33.2460
   -15.6798 -15.6769 -15.5403 -15.5361 -15.0117 -15.0069 -14.4830 -14.4784
   -11.8823 -11.8765 -11.7104 -11.6928 -11.2282 -11.2053 -10.9370 -10.9155
   -10.8706 -10.8458 -10.6665 -10.6345 -10.2135 -10.1998  -9.7737  -9.7632
     3.1872   3.2469   4.6868   4.7290   4.9176   4.9731   5.3007   5.3653
     6.3339   6.3568   6.7734   6.8452   7.2541   7.3049   7.7627   7.8303
     9.0188   9.0479   9.6980   9.7679  10.5212  10.5883  10.6992  10.7847
    10.7980  10.8475  11.0222  11.0675  11.6448  11.6788

          k = 0.2500 0.1443-0.6263 (  5782 PWs)   bands (ev):

   -34.6205 -34.6205 -34.5156 -34.5155 -33.9306 -33.9306 -33.2462 -33.2462
   -15.6765 -15.6726 -15.5352 -15.5311 -15.0163 -15.0153 -14.4843 -14.4833
   -11.8823 -11.8676 -11.7007 -11.6860 -11.2173 -11.2113 -10.9114 -10.9028
   -10.8374 -10.7981 -10.7516 -10.7181 -10.2103 -10.2029  -9.7722  -9.7636
     3.7596   3.8050   4.3435   4.4154   4.7355   4.7843   5.4872   5.6172
     6.2339   6.2992   6.7103   6.8188   6.9008   6.9476   7.8063   7.8166
     9.1923   9.2091   9.6120   9.6340  10.3995  10.4327  10.6272  10.7445
    10.8473  10.9018  11.0428  11.0940  11.3556  11.3758

          k = 0.2500 0.7217 0.0000 (  5780 PWs)   bands (ev):

   -34.6118 -34.6118 -34.5084 -34.5083 -33.9226 -33.9226 -33.2385 -33.2384
   -15.7075 -15.6972 -15.5975 -15.5814 -15.0235 -15.0185 -14.4991 -14.4935
   -11.9172 -11.9081 -11.7876 -11.7693 -11.2652 -11.2392 -10.9719 -10.9483
   -10.8636 -10.8282 -10.7025 -10.6759 -10.2647 -10.2587  -9.9077  -9.8912
     3.9857   4.0419   4.2926   4.4110   5.1473   5.2303   5.8155   5.8732
     6.0760   6.2062   6.5835   6.6204   7.1031   7.1834   7.6355   7.6690
     9.5389   9.5705   9.8145   9.9148  10.3550  10.4128  10.4464  10.4727
    10.8447  10.8954  11.1001  11.2096  11.3428  11.4858

          k = 0.2500 0.7217 0.3132 (  5788 PWs)   bands (ev):

   -34.6116 -34.6116 -34.5082 -34.5082 -33.9229 -33.9228 -33.2387 -33.2385
   -15.7051 -15.6928 -15.5969 -15.5794 -15.0303 -15.0229 -14.5023 -14.4965
   -11.9157 -11.8943 -11.7974 -11.7605 -11.2624 -11.2495 -10.9558 -10.9221
   -10.8769 -10.8454 -10.7157 -10.6912 -10.2624 -10.2491  -9.8980  -9.8926
     4.2109   4.2593   4.4860   4.5476   4.9848   5.0778   5.8113   5.9502
     6.0807   6.1544   6.4281   6.5229   6.8891   6.9714   7.4653   7.5710
     9.5490   9.5726   9.7131   9.7759  10.3355  10.3610  10.4870  10.5383
    10.9115  10.9439  11.0655  11.0908  11.8613  11.9137

          k = 0.2500 0.7217-0.6263 (  5776 PWs)   bands (ev):

   -34.6115 -34.6114 -34.5081 -34.5080 -33.9232 -33.9231 -33.2388 -33.2387
   -15.7056 -15.6937 -15.5965 -15.5785 -15.0316 -15.0259 -14.5035 -14.4986
   -11.9157 -11.8924 -11.8054 -11.7600 -11.2406 -11.2316 -10.9282 -10.9001
   -10.8739 -10.8345 -10.7715 -10.7392 -10.2597 -10.2423  -9.8957  -9.8852
     4.1899   4.2705   4.5850   4.6940   5.2042   5.2483   5.6012   5.7150
     5.9966   6.0690   6.5339   6.6427   6.9166   7.0050   7.4251   7.4666
     9.3506   9.3783   9.8716   9.8963  10.1253  10.1505  10.3605  10.4145
    10.8871  10.9249  11.3587  11.4477  11.6434  11.7224

          k = 0.2500-1.0104 0.0000 (  5830 PWs)   bands (ev):

   -34.6036 -34.6036 -34.4995 -34.4995 -33.9157 -33.9157 -33.2309 -33.2309
   -15.7341 -15.7299 -15.6327 -15.6283 -15.0419 -15.0414 -14.5137 -14.5132
   -11.9614 -11.9502 -11.8497 -11.8368 -11.2780 -11.2713 -10.9543 -10.9479
   -10.8617 -10.8405 -10.7800 -10.7583 -10.3356 -10.3276  -9.9943  -9.9878
     4.4864   4.5210   5.0050   5.0892   5.2090   5.2754   5.5113   5.6416
     5.8013   5.8772   6.4374   6.5094   7.0640   7.1016   7.5064   7.6143
     9.1269   9.1964   9.8641   9.9502  10.4134  10.4427  10.6299  10.7279
    10.8871  10.9442  11.0655  11.1171  11.9298  12.0205

          k = 0.2500-1.0104 0.3132 (  5808 PWs)   bands (ev):

   -34.6036 -34.6036 -34.4995 -34.4995 -33.9158 -33.9158 -33.2309 -33.2309
   -15.7375 -15.7317 -15.6338 -15.6286 -15.0447 -15.0421 -14.5169 -14.5138
   -11.9641 -11.9509 -11.8563 -11.8373 -11.2802 -11.2640 -10.9482 -10.9304
   -10.8697 -10.8333 -10.7940 -10.7561 -10.3325 -10.3151  -9.9876  -9.9772
     4.2921   4.3453   4.8763   4.9473   5.3351   5.4032   5.7873   5.9032
     6.0420   6.1322   6.2668   6.4426   6.9807   7.0748   7.4559   7.5433
     9.2062   9.2508   9.5577   9.5782  10.2391  10.2708  10.5974  10.6304
    10.9353  11.0044  11.3066  11.3298  12.0236  12.0807

          k = 0.2500-1.0104-0.6263 (  5768 PWs)   bands (ev):

   -34.6035 -34.6035 -34.4994 -34.4994 -33.9159 -33.9159 -33.2309 -33.2309
   -15.7393 -15.7337 -15.6355 -15.6296 -15.0454 -15.0447 -14.5177 -14.5171
   -11.9667 -11.9494 -11.8634 -11.8409 -11.2694 -11.2633 -10.9274 -10.9176
   -10.8860 -10.8612 -10.7774 -10.7566 -10.3196 -10.3126  -9.9753  -9.9725
     4.2640   4.3235   4.9336   4.9680   5.4031   5.4420   5.7339   5.7691
     5.9030   5.9543   6.5766   6.6077   6.9984   7.1201   7.4554   7.5182
     9.2130   9.2417   9.3441   9.3546  10.2221  10.2573  10.5318  10.5651
    10.9862  11.0048  11.5526  11.6078  11.8878  11.9346

          k = 0.2500-0.4330 0.0000 (  5792 PWs)   bands (ev):

   -34.6131 -34.6130 -34.5072 -34.5071 -33.9229 -33.9228 -33.2383 -33.2382
   -15.7169 -15.7027 -15.5878 -15.5764 -15.0259 -15.0200 -14.4963 -14.4913
   -11.9404 -11.9145 -11.7789 -11.7623 -11.2526 -11.2260 -10.9466 -10.9221
   -10.9084 -10.8981 -10.6652 -10.6444 -10.3078 -10.2903  -9.8711  -9.8652
     3.3416   3.4288   5.0107   5.0707   5.3021   5.3420   5.5726   5.7117
     6.2153   6.3387   6.5844   6.7127   7.2317   7.2846   7.5994   7.6992
     9.2140   9.2662  10.0393  10.1301  10.1937  10.2291  10.3061  10.3692
    11.1232  11.1812  11.4199  11.4845  11.6964  11.7213

          k = 0.2500-0.4330 0.3132 (  5790 PWs)   bands (ev):

   -34.6129 -34.6128 -34.5071 -34.5070 -33.9231 -33.9230 -33.2384 -33.2383
   -15.7193 -15.7026 -15.5863 -15.5748 -15.0276 -15.0228 -14.4975 -14.4936
   -11.9535 -11.9096 -11.7732 -11.7632 -11.2349 -11.2160 -10.9369 -10.9187
   -10.8883 -10.8579 -10.7240 -10.6914 -10.3014 -10.2860  -9.8696  -9.8586
     3.4984   3.6004   5.0379   5.0965   5.2935   5.3338   5.6441   5.7189
     5.9757   6.0093   6.7347   6.8051   7.2346   7.3558   7.6458   7.7378
     9.0313   9.0985   9.6278   9.6992  10.1223  10.1586  10.3181  10.3716
    11.1646  11.2186  11.2271  11.3009  11.5854  11.6928

          k = 0.2500-0.4330-0.6263 (  5812 PWs)   bands (ev):

   -34.6126 -34.6125 -34.5069 -34.5069 -33.9234 -33.9233 -33.2385 -33.2384
   -15.7195 -15.7002 -15.5819 -15.5706 -15.0343 -15.0277 -14.5011 -14.4966
   -11.9579 -11.9054 -11.7708 -11.7482 -11.2377 -11.2272 -10.9551 -10.9080
   -10.8487 -10.8157 -10.7693 -10.7340 -10.2998 -10.2766  -9.8660  -9.8556
     3.9775   4.0606   4.7615   4.8463   5.2102   5.2479   5.5679   5.6348
     6.1506   6.2089   6.6431   6.7530   6.8451   6.9112   7.5811   7.6975
     9.2019   9.2583   9.5969   9.6378   9.7948   9.8546  10.4423  10.4722
    11.1097  11.1623  11.3556  11.3993  11.6930  11.7221

          k =-0.5000-0.2887 0.0000 (  5780 PWs)   bands (ev):

   -34.6200 -34.6200 -34.5172 -34.5172 -33.9295 -33.9295 -33.2460 -33.2460
   -15.6720 -15.6720 -15.5516 -15.5516 -14.9999 -14.9999 -14.4792 -14.4792
   -11.8627 -11.8627 -11.7235 -11.7235 -11.2232 -11.2232 -10.9676 -10.9676
   -10.8000 -10.8000 -10.6378 -10.6378 -10.2012 -10.2012  -9.8047  -9.8047
     3.4617   3.4617   3.8822   3.8822   5.3764   5.3764   6.0705   6.0705
     6.2071   6.2071   6.4040   6.4040   7.3505   7.3505   7.8026   7.8026
     9.4607   9.4607   9.7458   9.7458  10.5025  10.5025  10.6612  10.6612
    11.0089  11.0089  11.1957  11.1957  11.4599  11.4599

          k =-0.5000-0.2887 0.3132 (  5750 PWs)   bands (ev):

   -34.6196 -34.6196 -34.5170 -34.5170 -33.9299 -33.9299 -33.2462 -33.2462
   -15.6687 -15.6642 -15.5495 -15.5482 -15.0084 -15.0038 -14.4846 -14.4796
   -11.8586 -11.8466 -11.7266 -11.7172 -11.2264 -11.2024 -10.9403 -10.9256
   -10.8262 -10.8176 -10.7011 -10.6667 -10.2004 -10.1930  -9.8088  -9.8004
     3.7021   3.7371   4.0913   4.1296   5.1857   5.3004   5.6826   5.7992
     6.1822   6.2484   6.4973   6.5404   6.9850   7.0549   7.7783   7.8473
     9.3679   9.4158   9.7388   9.7815  10.2168  10.3138  10.7540  10.7900
    10.9075  10.9645  11.1555  11.2106  11.4296  11.4694

          k =-0.5000-0.2887-0.6263 (  5788 PWs)   bands (ev):

   -34.6193 -34.6193 -34.5167 -34.5167 -33.9303 -33.9303 -33.2465 -33.2465
   -15.6609 -15.6609 -15.5460 -15.5460 -15.0124 -15.0124 -14.4850 -14.4850
   -11.8427 -11.8427 -11.7201 -11.7201 -11.2052 -11.2052 -10.8837 -10.8837
   -10.8382 -10.8382 -10.7500 -10.7500 -10.1928 -10.1928  -9.8045  -9.8045
     4.1939   4.1939   4.4121   4.4121   4.8049   4.8049   5.4720   5.4720
     6.1994   6.1994   6.4905   6.4905   6.8960   6.8960   7.7433   7.7433
     9.4095   9.4095   9.6872   9.6872  10.4298  10.4298  10.5522  10.5522
    10.7248  10.7248  10.9906  10.9906  11.4104  11.4105

          k =-0.5000 0.2887 0.0000 (  5800 PWs)   bands (ev):

   -34.6126 -34.6125 -34.5077 -34.5076 -33.9227 -33.9226 -33.2384 -33.2383
   -15.7172 -15.7048 -15.5877 -15.5752 -15.0233 -15.0179 -14.4976 -14.4929
   -11.9365 -11.9176 -11.7703 -11.7606 -11.2570 -11.2288 -10.9635 -10.9389
   -10.8583 -10.8430 -10.6966 -10.6733 -10.2994 -10.2858  -9.8926  -9.8845
     3.5935   3.7093   4.8261   4.9288   5.2960   5.3802   5.7511   5.8781
     6.0456   6.1613   6.4169   6.5144   7.1365   7.2164   7.5434   7.5981
     9.3173   9.3911   9.8772   9.9393  10.4406  10.4883  10.5911  10.6240
    10.9166  10.9801  11.2609  11.2944  11.4219  11.4828

          k =-0.5000 0.2887 0.3132 (  5776 PWs)   bands (ev):

   -34.6123 -34.6122 -34.5075 -34.5075 -33.9230 -33.9229 -33.2386 -33.2385
   -15.7167 -15.7022 -15.5847 -15.5712 -15.0302 -15.0226 -14.5013 -14.4956
   -11.9385 -11.9087 -11.7727 -11.7481 -11.2585 -11.2422 -10.9558 -10.9229
   -10.8587 -10.8291 -10.7179 -10.7023 -10.2951 -10.2786  -9.8876  -9.8810
     3.8632   3.9619   4.8693   4.9497   5.2152   5.2900   5.8254   5.9055
     6.0087   6.1312   6.3736   6.4636   6.8478   6.9343   7.4065   7.4592
     9.6293   9.6629   9.7636   9.8484   9.9266  10.0038  10.6384  10.6880
    11.0070  11.0678  11.0882  11.1352  11.5600  11.5926

          k =-0.5000 0.2887-0.6263 (  5782 PWs)   bands (ev):

   -34.6122 -34.6121 -34.5074 -34.5073 -33.9232 -33.9231 -33.2387 -33.2386
   -15.7191 -15.7031 -15.5822 -15.5696 -15.0319 -15.0257 -14.5023 -14.4982
   -11.9445 -11.9082 -11.7716 -11.7470 -11.2378 -11.2266 -10.9247 -10.8798
   -10.8522 -10.8349 -10.7823 -10.7572 -10.2878 -10.2692  -9.8881  -9.8741
     4.2548   4.3360   4.7125   4.7670   5.0992   5.1913   5.5377   5.6105
     6.1545   6.1863   6.4958   6.5643   6.9413   7.0337   7.4786   7.5120
     9.1930   9.2072   9.7380   9.7960  10.0238  10.0994  10.3999  10.4837
    10.7623  10.8440  11.3328  11.3788  11.5792  11.6013

          k =-0.5000-1.4434 0.0000 (  5820 PWs)   bands (ev):

   -34.6036 -34.6036 -34.4995 -34.4995 -33.9157 -33.9157 -33.2309 -33.2309
   -15.7285 -15.7285 -15.6324 -15.6324 -15.0405 -15.0405 -14.5124 -14.5124
   -11.9473 -11.9473 -11.8514 -11.8514 -11.2651 -11.2651 -10.9490 -10.9490
   -10.8309 -10.8309 -10.7829 -10.7829 -10.3560 -10.3560 -10.0043 -10.0043
     4.7353   4.7353   5.0331   5.0331   5.3460   5.3460   5.6758   5.6758
     6.0589   6.0589   6.1727   6.1727   7.0911   7.0911   7.3940   7.3940
     9.3796   9.3796   9.7523   9.7523  10.4181  10.4181  10.7039  10.7039
    10.9277  10.9277  11.0568  11.0568  11.7594  11.7594

          k =-0.5000-1.4434 0.3132 (  5802 PWs)   bands (ev):

   -34.6036 -34.6036 -34.4995 -34.4995 -33.9158 -33.9158 -33.2309 -33.2309
   -15.7313 -15.7296 -15.6344 -15.6327 -15.0437 -15.0408 -14.5157 -14.5131
   -11.9557 -11.9444 -11.8622 -11.8458 -11.2684 -11.2535 -10.9430 -10.9222
   -10.8571 -10.8243 -10.8124 -10.7648 -10.3547 -10.3373 -10.0010  -9.9896
     4.6571   4.7182   4.9823   5.0360   5.3772   5.4339   5.6916   5.7865
     5.8718   5.9860   6.4077   6.4920   6.9487   7.0566   7.3929   7.4850
     9.1017   9.1617   9.7435   9.7827   9.9951  10.0743  10.3382  10.3786
    10.9277  10.9841  11.0621  11.1625  11.9467  12.0227

          k =-0.5000-1.4434-0.6263 (  5776 PWs)   bands (ev):

   -34.6035 -34.6035 -34.4994 -34.4994 -33.9159 -33.9159 -33.2310 -33.2310
   -15.7324 -15.7324 -15.6346 -15.6346 -15.0440 -15.0440 -14.5164 -14.5164
   -11.9532 -11.9532 -11.8562 -11.8562 -11.2569 -11.2569 -10.9158 -10.9158
   -10.8623 -10.8623 -10.7820 -10.7820 -10.3371 -10.3371  -9.9860  -9.9860
     4.6733   4.6733   4.9278   4.9278   5.4792   5.4792   5.7037   5.7037
     6.0734   6.0734   6.6182   6.6182   6.9398   6.9398   7.3476   7.3476
     9.0414   9.0414   9.3741   9.3741  10.0196  10.0196  10.2146  10.2146
    11.2605  11.2605  11.3874  11.3874  11.5880  11.5880

          k = 0.0000-0.5773 0.3132 (  5776 PWs)   bands (ev):

   -34.6122 -34.6121 -34.5078 -34.5077 -33.9230 -33.9229 -33.2385 -33.2384
   -15.7070 -15.6956 -15.5971 -15.5828 -15.0273 -15.0236 -14.4991 -14.4938
   -11.9303 -11.8975 -11.7985 -11.7725 -11.2439 -11.2231 -10.9520 -10.9387
   -10.8708 -10.8532 -10.7188 -10.6947 -10.2764 -10.2610  -9.8765  -9.8660
     3.5277   3.6144   4.8537   4.9903   5.1905   5.2351   5.7505   5.7889
     6.0216   6.1304   6.6775   6.8394   7.1625   7.2421   7.6657   7.6869
     9.2082   9.2898   9.6954   9.7788  10.2833  10.3205  10.3333  10.3805
    11.0457  11.1151  11.2742  11.3574  11.6057  11.6798

          k =-0.2500-0.1443 0.3132 (  5768 PWs)   bands (ev):

   -34.6208 -34.6208 -34.5158 -34.5157 -33.9301 -33.9301 -33.2460 -33.2460
   -15.6817 -15.6734 -15.5409 -15.5377 -15.0115 -15.0069 -14.4831 -14.4780
   -11.8906 -11.8639 -11.7090 -11.6995 -11.2339 -11.2111 -10.9490 -10.9146
   -10.8459 -10.8228 -10.6704 -10.6498 -10.2187 -10.2034  -9.7709  -9.7614
     3.1557   3.2356   4.4305   4.5265   4.8695   4.9331   6.0598   6.1288
     6.1485   6.2055   6.6340   6.7082   6.9661   7.0881   7.8164   7.8595
     9.1337   9.2064   9.8422   9.8652  10.3312  10.3688  10.6993  10.7323
    10.8410  10.8956  11.0808  11.1244  11.5776  11.6562

          k =-0.2500-0.7217 0.3132 (  5788 PWs)   bands (ev):

   -34.6117 -34.6116 -34.5083 -34.5082 -33.9229 -33.9228 -33.2386 -33.2385
   -15.7081 -15.6981 -15.5971 -15.5805 -15.0248 -15.0216 -14.5005 -14.4955
   -11.9186 -11.9048 -11.7984 -11.7658 -11.2404 -11.2245 -10.9450 -10.9289
   -10.8498 -10.8441 -10.7422 -10.7220 -10.2634 -10.2496  -9.9022  -9.8865
     3.9627   4.0480   4.3871   4.5466   5.3553   5.4245   5.6256   5.6668
     6.0354   6.1442   6.6019   6.6720   7.2402   7.2744   7.5294   7.5730
     9.2754   9.3156   9.7731   9.8117  10.2944  10.3513  10.5744  10.6294
    10.8632  10.9022  11.0836  11.1241  11.3730  11.4483

          k =-0.2500 1.0104 0.3132 (  5808 PWs)   bands (ev):

   -34.6036 -34.6036 -34.4995 -34.4995 -33.9158 -33.9158 -33.2309 -33.2309
   -15.7360 -15.7318 -15.6348 -15.6289 -15.0451 -15.0416 -14.5165 -14.5144
   -11.9670 -11.9456 -11.8635 -11.8336 -11.2761 -11.2617 -10.9425 -10.9253
   -10.8809 -10.8573 -10.7943 -10.7374 -10.3330 -10.3141  -9.9900  -9.9754
     4.4432   4.4939   5.0715   5.1084   5.2252   5.2878   5.4617   5.5158
     5.8511   5.9104   6.5254   6.5871   7.0477   7.1077   7.5888   7.6149
     9.0322   9.0882   9.7670   9.7927  10.3714  10.4173  10.4916  10.5033
    10.8494  10.8743  11.1415  11.1829  12.1414  12.1785

          k =-0.2500 0.4330 0.3132 (  5790 PWs)   bands (ev):

   -34.6128 -34.6127 -34.5070 -34.5070 -33.9231 -33.9230 -33.2384 -33.2383
   -15.7171 -15.7000 -15.5836 -15.5722 -15.0326 -15.0248 -14.5000 -14.4942
   -11.9460 -11.9085 -11.7772 -11.7475 -11.2538 -11.2386 -10.9564 -10.9231
   -10.8950 -10.8626 -10.6931 -10.6678 -10.3055 -10.2820  -9.8687  -9.8608
     3.7040   3.7642   4.8507   4.9278   5.2152   5.2689   5.7272   5.8579
     6.1135   6.2412   6.5925   6.6573   6.8334   6.9154   7.5783   7.6493
     9.3980   9.4678   9.6597   9.6891   9.9058   9.9483  10.7956  10.8207
    11.0271  11.0877  11.2101  11.2816  11.7514  11.8658

          k = 0.5000-0.2887 0.3132 (  5776 PWs)   bands (ev):

   -34.6124 -34.6123 -34.5075 -34.5075 -33.9229 -33.9229 -33.2386 -33.2384
   -15.7197 -15.7056 -15.5854 -15.5736 -15.0250 -15.0209 -14.4988 -14.4953
   -11.9445 -11.9145 -11.7718 -11.7574 -11.2321 -11.2168 -10.9303 -10.9009
   -10.8796 -10.8452 -10.7462 -10.7176 -10.2904 -10.2775  -9.8926  -9.8778
     3.8143   3.9392   4.7208   4.8144   5.3388   5.4145   5.6377   5.7129
     5.9737   6.0019   6.5731   6.6446   7.3177   7.4096   7.5075   7.5824
     9.0343   9.0805   9.7560   9.7981  10.2600  10.3055  10.4015  10.4753
    10.9479  10.9886  11.0387  11.0830  11.6012  11.6643

     the Fermi energy is     9.9830 ev

!    total energy              =   -2246.44568855 Ry
     Harris-Foulkes estimate   =   -2246.44568878 Ry
     estimated scf accuracy    <       0.00000029 Ry

     total all-electron energy =    -90250.789065 Ry

     The total energy is the sum of the following terms:

     one-electron contribution =     -52.68621271 Ry
     hartree contribution      =      48.52742275 Ry
     xc contribution           =    -258.46890695 Ry
     ewald contribution        =    -235.70415465 Ry
     one-center paw contrib.   =   -1748.11147522 Ry
     smearing contrib. (-TS)   =      -0.00236177 Ry

     convergence has been achieved in  11 iterations

     Writing output data file 2327.save
 
     init_run     :      2.68s CPU      3.63s WALL (       1 calls)
     electrons    :     56.61s CPU     61.27s WALL (       1 calls)

     Called by init_run:
     wfcinit      :      2.39s CPU      2.85s WALL (       1 calls)
     potinit      :      0.13s CPU      0.22s WALL (       1 calls)

     Called by electrons:
     c_bands      :     47.92s CPU     50.71s WALL (      11 calls)
     sum_band     :      6.42s CPU      6.83s WALL (      11 calls)
     v_of_rho     :      0.03s CPU      0.04s WALL (      12 calls)
     newd         :      0.86s CPU      0.90s WALL (      12 calls)
     PAW_pot      :      1.41s CPU      1.47s WALL (      12 calls)
     mix_rho      :      0.13s CPU      0.14s WALL (      11 calls)

     Called by c_bands:
     init_us_2    :      0.34s CPU      0.36s WALL (     828 calls)
     cegterg      :     45.26s CPU     47.81s WALL (     396 calls)

     Called by sum_band:
     sum_band:bec :      1.96s CPU      1.97s WALL (     396 calls)
     addusdens    :      0.29s CPU      0.32s WALL (      11 calls)

     Called by *egterg:
     h_psi        :     24.11s CPU     26.47s WALL (    1785 calls)
     s_psi        :      2.61s CPU      2.64s WALL (    1785 calls)
     g_psi        :      0.06s CPU      0.06s WALL (    1353 calls)
     cdiaghg      :     12.35s CPU     12.66s WALL (    1749 calls)

     Called by h_psi:
     h_psi:pot    :     23.67s CPU     26.01s WALL (    1785 calls)
     h_psi:calbec :      1.87s CPU      2.19s WALL (    1785 calls)
     vloc_psi     :     19.07s CPU     21.07s WALL (    1785 calls)
     add_vuspsi   :      2.70s CPU      2.74s WALL (    1785 calls)

     General routines
     calbec       :      2.35s CPU      2.76s WALL (    2181 calls)
     fft          :      0.04s CPU      0.26s WALL (     224 calls)
     fftw         :     19.97s CPU     22.02s WALL (  320532 calls)
     davcio       :      0.00s CPU      0.01s WALL (      36 calls)
 
     Parallel routines
     fft_scatter  :     15.02s CPU     16.57s WALL (  320756 calls)
 
     PWSCF        :  1m 0.11s CPU     2m15.79s WALL

 
   This run was terminated on:  10:57: 8  16Nov2022            

=------------------------------------------------------------------------------=
   JOB DONE.
=------------------------------------------------------------------------------=
Removing 2327 from /home/shaharpit/tmp
