
     Program PWSCF v.6.1 (svn rev. 13369) starts on 30Nov2022 at 13:42:32 

     This program is part of the open-source Quantum ESPRESSO suite
     for quantum simulation of materials; please cite
         "P. Giannozzi et al., J. Phys.:Condens. Matter 21 395502 (2009);
          URL http://www.quantum-espresso.org", 
     in publications or presentations arising from this work. More details at
     http://www.quantum-espresso.org/quote

     Parallel version (MPI), running on     4 processors
     R & G space division:  proc/nbgrp/npool/nimage =       4
     Reading input from ./hcp_75_1.in
Warning: card &IONS ignored
Warning: card 	ION_DYNAMICS='BFGS', ignored
Warning: card / ignored
Warning: card &CELL ignored
Warning: card / ignored

     Current dimensions of program PWSCF are:
     Max number of different atomic species (ntypx) = 10
     Max number of k-points (npk) =  40000
     Max angular momentum in pseudopotentials (lmaxx) =  3
               file Gd.rel-pbe-spdn-kjpaw_psl.1.0.0.UPF: wavefunction(s)  5P 5P renormalized
               file H.pbe-kjpaw_psl.0.1.UPF: wavefunction(s)  1S renormalized

     Subspace diagonalization in iterative solution of the eigenvalue problem:
     a serial algorithm will be used

 
     Parallelization info
     --------------------
     sticks:   dense  smooth     PW     G-vecs:    dense   smooth      PW
     Min         321     321     98                10533    10533    1775
     Max         322     322    100                10538    10538    1776
     Sum        1287    1287    397                42147    42147    7103
 


     bravais-lattice index     =            0
     lattice parameter (alat)  =      13.6588  a.u.
     unit-cell volume          =     880.8636 (a.u.)^3
     number of atoms/cell      =           10
     number of atomic types    =            2
     number of electrons       =        50.00
     number of Kohn-Sham states=           60
     kinetic-energy cutoff     =      50.0000  Ry
     charge density cutoff     =     200.0000  Ry
     convergence threshold     =      1.0E-06
     mixing beta               =       0.7000
     number of iterations used =            8  plain     mixing
     Exchange-correlation      =  SLA  PW   PBX  PBC ( 1  4  3  4 0 0)
     Non magnetic calculation with spin-orbit


     celldm(1)=  13.658752  celldm(2)=   0.000000  celldm(3)=   0.000000
     celldm(4)=   0.000000  celldm(5)=   0.000000  celldm(6)=   0.000000

     crystal axes: (cart. coord. in units of alat)
               a(1) = (   1.000000   0.000000   0.000000 )  
               a(2) = (  -0.250003   0.433017   0.000000 )  
               a(3) = (   0.000000   0.000000   0.798309 )  

     reciprocal axes: (cart. coord. in units 2 pi/alat)
               b(1) = (  1.000000  0.577353  0.000000 )  
               b(2) = (  0.000000  2.309381  0.000000 )  
               b(3) = (  0.000000  0.000000  1.252647 )  


     PseudoPot. # 1 for Gd read from file:
     /home/shaharpit/MeamGdH/dft/qe_potentials/Gd.rel-pbe-spdn-kjpaw_psl.1.0.0.UPF
     MD5 check sum: cf50ec46d1536b4a0251694df1946a53
     Pseudo is Projector augmented-wave + core cor, Zval = 11.0
     Generated using "atomic" code by A. Dal Corso  v.6.2.2
     Shape of augmentation charge: PSQ
     Using radial grid of 1263 points, 10 beta functions with: 
                l(1) =   0
                l(2) =   0
                l(3) =   1
                l(4) =   1
                l(5) =   1
                l(6) =   1
                l(7) =   2
                l(8) =   2
                l(9) =   2
               l(10) =   2
     Q(r) pseudized with 0 coefficients 


     PseudoPot. # 2 for  H read from file:
     /home/shaharpit/MeamGdH/dft/qe_potentials/H.pbe-kjpaw_psl.0.1.UPF
     MD5 check sum: fbb168fef676c0aaadbafd73f5b1efa8
     Pseudo is Projector augmented-wave, Zval =  1.0
     Generated using "atomic" code by A. Dal Corso  v.5.0.2 svn rev. 9415
     Shape of augmentation charge: PSQ
     Using radial grid of  929 points,  2 beta functions with: 
                l(1) =   0
                l(2) =   0
     Q(r) pseudized with 0 coefficients 


     atomic species   valence    mass     pseudopotential
        Gd            11.00   157.25000     Gd( 1.00)
        H              1.00     1.00794      H( 1.00)

     No symmetry found



   Cartesian axes

     site n.     atom                  positions (alat units)
         1           Gd  tau(   1) = (   0.2499738   0.1443244   0.5987320  )
         2           Gd  tau(   2) = (   0.7499738   0.1443244   0.5987320  )
         3           Gd  tau(   3) = (   0.0000227   0.2886921   0.1995773  )
         4           Gd  tau(   4) = (   0.5000227   0.2886921   0.1995773  )
         5           H   tau(   5) = (   0.2603489   0.1351878   0.7734021  )
         6           H   tau(   6) = (   0.7141741   0.1153989   0.7679736  )
         7           H   tau(   7) = (   0.7240968   0.3952575   0.4070579  )
         8           H   tau(   8) = (   0.2676216   0.4208487   0.3987555  )
         9           H   tau(   9) = (  -0.0020534   0.4258284   0.2957736  )
        10           H   tau(  10) = (   0.7594248   0.0214343   0.2383752  )

     number of k points=    36  gaussian smearing, width (Ry)=  0.0100
                       cart. coord. in units 2pi/alat
        k(    1) = (   0.0000000   0.0000000   0.0000000), wk =   0.0156250
        k(    2) = (   0.0000000   0.0000000   0.3131618), wk =   0.0312500
        k(    3) = (   0.0000000   0.0000000  -0.6263236), wk =   0.0156250
        k(    4) = (   0.0000000   0.5773452   0.0000000), wk =   0.0312500
        k(    5) = (   0.0000000   0.5773452   0.3131618), wk =   0.0312500
        k(    6) = (   0.0000000   0.5773452  -0.6263236), wk =   0.0312500
        k(    7) = (   0.0000000  -1.1546904   0.0000000), wk =   0.0156250
        k(    8) = (   0.0000000  -1.1546904   0.3131618), wk =   0.0312500
        k(    9) = (   0.0000000  -1.1546904  -0.6263236), wk =   0.0156250
        k(   10) = (   0.2500000   0.1443383   0.0000000), wk =   0.0312500
        k(   11) = (   0.2500000   0.1443383   0.3131618), wk =   0.0312500
        k(   12) = (   0.2500000   0.1443383  -0.6263236), wk =   0.0312500
        k(   13) = (   0.2500000   0.7216835   0.0000000), wk =   0.0312500
        k(   14) = (   0.2500000   0.7216835   0.3131618), wk =   0.0312500
        k(   15) = (   0.2500000   0.7216835  -0.6263236), wk =   0.0312500
        k(   16) = (   0.2500000  -1.0103521   0.0000000), wk =   0.0312500
        k(   17) = (   0.2500000  -1.0103521   0.3131618), wk =   0.0312500
        k(   18) = (   0.2500000  -1.0103521  -0.6263236), wk =   0.0312500
        k(   19) = (   0.2500000  -0.4330069   0.0000000), wk =   0.0312500
        k(   20) = (   0.2500000  -0.4330069   0.3131618), wk =   0.0312500
        k(   21) = (   0.2500000  -0.4330069  -0.6263236), wk =   0.0312500
        k(   22) = (  -0.5000000  -0.2886766   0.0000000), wk =   0.0156250
        k(   23) = (  -0.5000000  -0.2886766   0.3131618), wk =   0.0312500
        k(   24) = (  -0.5000000  -0.2886766  -0.6263236), wk =   0.0156250
        k(   25) = (  -0.5000000   0.2886686   0.0000000), wk =   0.0312500
        k(   26) = (  -0.5000000   0.2886686   0.3131618), wk =   0.0312500
        k(   27) = (  -0.5000000   0.2886686  -0.6263236), wk =   0.0312500
        k(   28) = (  -0.5000000  -1.4433670   0.0000000), wk =   0.0156250
        k(   29) = (  -0.5000000  -1.4433670   0.3131618), wk =   0.0312500
        k(   30) = (  -0.5000000  -1.4433670  -0.6263236), wk =   0.0156250
        k(   31) = (   0.0000000  -0.5773452   0.3131618), wk =   0.0312500
        k(   32) = (  -0.2500000  -0.1443383   0.3131618), wk =   0.0312500
        k(   33) = (  -0.2500000  -0.7216835   0.3131618), wk =   0.0312500
        k(   34) = (  -0.2500000   1.0103521   0.3131618), wk =   0.0312500
        k(   35) = (  -0.2500000   0.4330069   0.3131618), wk =   0.0312500
        k(   36) = (   0.5000000  -0.2886686   0.3131618), wk =   0.0312500

     Dense  grid:    42147 G-vectors     FFT dimensions: (  64,  32,  50)

     Estimated max dynamical RAM per process >     132.17MB

     Estimated total allocated dynamical RAM >     528.68MB

     Initial potential from superposition of free atoms

     starting charge   49.92376, renormalised to   50.00000
     Starting wfc are  116 randomized atomic wfcs
     Checking if some PAW data can be deallocated... 

     total cpu time spent up to now is        9.7 secs

     per-process dynamical memory:   159.0 Mb

     Self-consistent Calculation

     iteration #  1     ecut=    50.00 Ry     beta=0.70
     Davidson diagonalization with overlap
     ethr =  1.00E-02,  avg # of iterations =  2.0

     total cpu time spent up to now is       24.2 secs

     total energy              =   -2243.82061760 Ry
     Harris-Foulkes estimate   =   -2244.25102814 Ry
     estimated scf accuracy    <       0.75911142 Ry

     iteration #  2     ecut=    50.00 Ry     beta=0.70
     Davidson diagonalization with overlap
     ethr =  1.52E-03,  avg # of iterations =  2.2

     total cpu time spent up to now is       37.5 secs

     total energy              =   -2243.92262556 Ry
     Harris-Foulkes estimate   =   -2244.00446032 Ry
     estimated scf accuracy    <       0.12576884 Ry

     iteration #  3     ecut=    50.00 Ry     beta=0.70
     Davidson diagonalization with overlap
     ethr =  2.52E-04,  avg # of iterations =  4.1

     total cpu time spent up to now is       54.4 secs

     total energy              =   -2243.91839619 Ry
     Harris-Foulkes estimate   =   -2244.03522329 Ry
     estimated scf accuracy    <       0.38356586 Ry

     iteration #  4     ecut=    50.00 Ry     beta=0.70
     Davidson diagonalization with overlap
     ethr =  2.52E-04,  avg # of iterations =  3.8

     total cpu time spent up to now is       69.8 secs

     total energy              =   -2243.97425949 Ry
     Harris-Foulkes estimate   =   -2243.97990629 Ry
     estimated scf accuracy    <       0.01491325 Ry

     iteration #  5     ecut=    50.00 Ry     beta=0.70
     Davidson diagonalization with overlap
     ethr =  2.98E-05,  avg # of iterations =  3.6

     total cpu time spent up to now is       84.8 secs

     total energy              =   -2243.97631401 Ry
     Harris-Foulkes estimate   =   -2243.97908712 Ry
     estimated scf accuracy    <       0.00788831 Ry

     iteration #  6     ecut=    50.00 Ry     beta=0.70
     Davidson diagonalization with overlap
     ethr =  1.58E-05,  avg # of iterations =  3.2

     total cpu time spent up to now is       98.6 secs

     total energy              =   -2243.97758247 Ry
     Harris-Foulkes estimate   =   -2243.97792199 Ry
     estimated scf accuracy    <       0.00085364 Ry

     iteration #  7     ecut=    50.00 Ry     beta=0.70
     Davidson diagonalization with overlap
     ethr =  1.71E-06,  avg # of iterations =  3.4

     total cpu time spent up to now is      113.1 secs

     total energy              =   -2243.97774688 Ry
     Harris-Foulkes estimate   =   -2243.97780489 Ry
     estimated scf accuracy    <       0.00014130 Ry

     iteration #  8     ecut=    50.00 Ry     beta=0.70
     Davidson diagonalization with overlap
     ethr =  2.83E-07,  avg # of iterations =  2.0

     total cpu time spent up to now is      126.2 secs

     total energy              =   -2243.97777809 Ry
     Harris-Foulkes estimate   =   -2243.97778330 Ry
     estimated scf accuracy    <       0.00001409 Ry

     iteration #  9     ecut=    50.00 Ry     beta=0.70
     Davidson diagonalization with overlap
     ethr =  2.82E-08,  avg # of iterations =  2.0

     total cpu time spent up to now is      139.3 secs

     End of self-consistent calculation

          k = 0.0000 0.0000 0.0000 (  5289 PWs)   bands (ev):

   -33.4048 -33.4048 -33.2020 -33.2020 -32.9533 -32.9533 -32.7746 -32.7746
   -14.5633 -14.5633 -14.3347 -14.3347 -14.0605 -14.0605 -13.8613 -13.8613
   -10.8017 -10.8017 -10.5538 -10.5538 -10.2940 -10.2940 -10.0428 -10.0428
    -9.6002  -9.6002  -9.2938  -9.2938  -9.2054  -9.2054  -8.8451  -8.8451
     3.7227   3.7227   5.9551   5.9551   6.2585   6.2585   7.0435   7.0435
     8.3656   8.3656   8.7309   8.7309   9.3389   9.3389   9.9280   9.9280
    10.6706  10.6706  11.4285  11.4285  11.8383  11.8383  12.1723  12.1723
    12.2955  12.2955  12.9134  12.9134

          k = 0.0000 0.0000 0.3132 (  5279 PWs)   bands (ev):

   -33.4034 -33.4034 -33.2007 -33.2007 -32.9551 -32.9551 -32.7758 -32.7758
   -14.5619 -14.5485 -14.3137 -14.3119 -14.0754 -14.0676 -13.8867 -13.8752
   -10.8187 -10.7780 -10.5348 -10.5088 -10.2991 -10.2651 -10.0762 -10.0482
    -9.6350  -9.5846  -9.3309  -9.3148  -9.2340  -9.1802  -8.8492  -8.8483
     4.0923   4.1299   5.6352   5.6896   6.5406   6.6406   6.9365   6.9834
     7.9934   8.0666   8.4821   8.5341   9.2974   9.3409   9.8078   9.8740
    10.8259  10.8424  11.3118  11.3239  11.8594  11.8955  12.0267  12.0354
    12.3728  12.4173  12.6913  12.7200

          k = 0.0000 0.0000-0.6263 (  5252 PWs)   bands (ev):

   -33.4019 -33.4019 -33.1994 -33.1994 -32.9570 -32.9570 -32.7769 -32.7769
   -14.5483 -14.5483 -14.2845 -14.2845 -14.0864 -14.0864 -13.9019 -13.9019
   -10.7993 -10.7993 -10.4756 -10.4756 -10.2743 -10.2743 -10.0881 -10.0881
    -9.6198  -9.6198  -9.3637  -9.3637  -9.1959  -9.1959  -8.8522  -8.8522
     4.6971   4.6971   5.5315   5.5315   6.2967   6.2967   6.9963   6.9963
     7.8460   7.8460   8.2690   8.2690   9.1895   9.1895   9.9939   9.9939
    11.0235  11.0235  11.1902  11.1902  11.9031  11.9031  12.0848  12.0848
    12.3710  12.3710  12.6246  12.6247

          k = 0.0000 0.5773 0.0000 (  5253 PWs)   bands (ev):

   -33.3891 -33.3889 -33.1902 -33.1901 -32.9421 -32.9419 -32.7665 -32.7664
   -14.5868 -14.5741 -14.3969 -14.3766 -14.0841 -14.0761 -13.9147 -13.9076
   -10.8345 -10.8084 -10.6396 -10.6131 -10.3216 -10.2753 -10.1495 -10.1257
    -9.6521  -9.6274  -9.3744  -9.3571  -9.2829  -9.2629  -9.0421  -9.0323
     4.7964   4.9215   5.7310   5.8790   6.6534   6.7437   7.0767   7.2664
     8.0241   8.1385   8.4552   8.5081   9.6939   9.7297  10.1335  10.2506
    10.4191  10.4914  11.0689  11.1977  11.7232  11.7671  11.9158  11.9415
    12.1609  12.2493  12.4782  12.5667

          k = 0.0000 0.5773 0.3132 (  5250 PWs)   bands (ev):

   -33.3883 -33.3881 -33.1893 -33.1891 -32.9432 -32.9431 -32.7673 -32.7671
   -14.5813 -14.5605 -14.3909 -14.3691 -14.0996 -14.0857 -13.9271 -13.9150
   -10.8384 -10.7914 -10.6469 -10.5773 -10.3118 -10.2930 -10.1602 -10.1279
    -9.6825  -9.6259  -9.4024  -9.3647  -9.2785  -9.2191  -9.0422  -9.0200
     5.1122   5.1906   5.7394   5.8578   6.7909   6.8504   7.1576   7.2525
     7.6264   7.7390   8.1462   8.2013   9.6004   9.6714  10.0924  10.1271
    10.4928  10.5805  10.8675  10.8958  11.6644  11.7480  12.1245  12.1397
    12.1767  12.2545  12.5259  12.5458

          k = 0.0000 0.5773-0.6263 (  5272 PWs)   bands (ev):

   -33.3876 -33.3874 -33.1883 -33.1882 -32.9442 -32.9441 -32.7680 -32.7678
   -14.5823 -14.5613 -14.3913 -14.3669 -14.1014 -14.0905 -13.9285 -13.9185
   -10.8548 -10.7818 -10.6338 -10.5820 -10.2936 -10.2777 -10.1432 -10.1121
    -9.7059  -9.6262  -9.4307  -9.4042  -9.2797  -9.1979  -9.0262  -9.0134
     5.2661   5.3452   5.7203   5.8221   6.6933   6.7139   7.2995   7.3845
     7.6580   7.7608   8.0881   8.1075   9.3166   9.4015  10.1280  10.2050
    10.7315  10.7845  11.2852  11.3166  11.3668  11.4466  11.5338  11.5476
    12.3447  12.4147  12.7927  12.7960

          k = 0.0000-1.1547 0.0000 (  5284 PWs)   bands (ev):

   -33.3750 -33.3750 -33.1761 -33.1761 -32.9318 -32.9318 -32.7572 -32.7572
   -14.6263 -14.6263 -14.4360 -14.4360 -14.1102 -14.1102 -13.9461 -13.9461
   -10.8652 -10.8652 -10.6771 -10.6771 -10.3675 -10.3675 -10.2050 -10.2050
    -9.6497  -9.6497  -9.4383  -9.4383  -9.2963  -9.2963  -9.1586  -9.1586
     5.7597   5.7597   5.9746   5.9746   6.3463   6.3463   6.8349   6.8349
     7.8749   7.8749   8.1339   8.1339   9.6415   9.6415   9.7611   9.7611
    10.8938  10.8938  11.1721  11.1721  11.7799  11.7799  11.9967  11.9967
    12.1739  12.1739  12.3704  12.3704

          k = 0.0000-1.1547 0.3132 (  5252 PWs)   bands (ev):

   -33.3749 -33.3748 -33.1757 -33.1757 -32.9322 -32.9322 -32.7573 -32.7573
   -14.6340 -14.6316 -14.4437 -14.4351 -14.1161 -14.1083 -13.9482 -13.9435
   -10.8768 -10.8568 -10.7130 -10.6646 -10.3717 -10.3475 -10.2069 -10.1661
    -9.6735  -9.6436  -9.4734  -9.4156  -9.3069  -9.2560  -9.1627  -9.1153
     5.6207   5.6620   5.7409   5.7616   6.5258   6.6580   6.7402   6.7918
     7.8861   7.9441   8.0986   8.1885   9.6889   9.6949   9.9268   9.9520
    10.9509  10.9781  11.1894  11.2675  11.7301  11.7495  12.1378  12.1933
    12.2896  12.3428  12.4675  12.5342

          k = 0.0000-1.1547-0.6263 (  5272 PWs)   bands (ev):

   -33.3747 -33.3747 -33.1753 -33.1753 -32.9326 -32.9326 -32.7575 -32.7575
   -14.6392 -14.6392 -14.4431 -14.4431 -14.1134 -14.1134 -13.9460 -13.9460
   -10.8683 -10.8683 -10.7033 -10.7033 -10.3483 -10.3483 -10.1694 -10.1694
    -9.6652  -9.6652  -9.4592  -9.4592  -9.2611  -9.2611  -9.1183  -9.1183
     5.5858   5.5858   5.6193   5.6193   6.5710   6.5710   6.7744   6.7744
     7.8301   7.8301   8.2784   8.2784   9.9495   9.9495  10.0067  10.0067
    11.0182  11.0182  11.1420  11.1420  11.9405  11.9405  12.3342  12.3342
    12.5393  12.5393  13.1525  13.1526

          k = 0.2500 0.1443 0.0000 (  5279 PWs)   bands (ev):

   -33.4032 -33.4032 -33.2038 -33.2037 -32.9522 -32.9522 -32.7757 -32.7757
   -14.5572 -14.5543 -14.3377 -14.3347 -14.0552 -14.0477 -13.8745 -13.8702
   -10.7933 -10.7767 -10.5662 -10.5466 -10.3000 -10.2509 -10.0925 -10.0503
    -9.5784  -9.5605  -9.3310  -9.3098  -9.1879  -9.1797  -8.9042  -8.8984
     3.9654   4.0427   5.4390   5.5846   6.5500   6.6393   7.0771   7.1767
     8.3925   8.4294   8.6899   8.7236   9.3806   9.4119   9.8577   9.9109
    10.7123  10.7604  11.3450  11.4387  11.8307  11.9116  12.0588  12.1546
    12.2930  12.3728  12.6737  12.7638

          k = 0.2500 0.1443 0.3132 (  5261 PWs)   bands (ev):

   -33.4019 -33.4019 -33.2024 -33.2023 -32.9539 -32.9539 -32.7770 -32.7770
   -14.5503 -14.5408 -14.3199 -14.3142 -14.0671 -14.0611 -13.8978 -13.8817
   -10.7877 -10.7618 -10.5493 -10.5133 -10.2890 -10.2415 -10.0991 -10.0716
    -9.6117  -9.5718  -9.3696  -9.3434  -9.1912  -9.1463  -8.9072  -8.9017
     4.3123   4.3789   5.6649   5.7956   6.3050   6.3271   7.0351   7.0836
     8.0293   8.0779   8.6661   8.7517   9.3725   9.3824   9.6765   9.7309
    10.9410  10.9661  11.3643  11.4090  11.7079  11.7548  11.8704  11.9549
    12.2181  12.2438  12.6739  12.6915

          k = 0.2500 0.1443-0.6263 (  5254 PWs)   bands (ev):

   -33.4006 -33.4005 -33.2009 -33.2009 -32.9557 -32.9557 -32.7783 -32.7783
   -14.5356 -14.5315 -14.3004 -14.2951 -14.0817 -14.0793 -13.9070 -13.9039
   -10.7762 -10.7562 -10.5114 -10.4923 -10.2724 -10.2533 -10.1041 -10.0865
    -9.6063  -9.5923  -9.4114  -9.3917  -9.1661  -9.1601  -8.9033  -8.9006
     4.8402   4.9076   5.4421   5.5037   6.3606   6.3740   7.0166   7.0753
     7.8327   7.8745   8.3432   8.3566   9.2858   9.3522   9.9474  10.0024
    11.0549  11.0712  11.2312  11.2695  11.7350  11.8104  11.9433  11.9777
    12.1719  12.2112  12.3105  12.3641

          k = 0.2500 0.7217 0.0000 (  5270 PWs)   bands (ev):

   -33.3884 -33.3882 -33.1909 -33.1908 -32.9415 -32.9414 -32.7671 -32.7670
   -14.5903 -14.5776 -14.3952 -14.3738 -14.0796 -14.0720 -13.9193 -13.9120
   -10.8206 -10.8125 -10.6199 -10.6124 -10.3230 -10.2918 -10.1725 -10.1285
    -9.6097  -9.5794  -9.4244  -9.3844  -9.2340  -9.2194  -9.0908  -9.0743
     5.1239   5.2699   5.3615   5.4773   6.7736   6.8242   6.9848   7.1157
     7.9987   8.0930   8.4728   8.4893   9.7356   9.7948   9.9975  10.0657
    10.7631  10.7944  10.9250  11.0499  11.7981  11.8500  11.8871  11.9214
    11.9716  12.0719  12.3439  12.4542

          k = 0.2500 0.7217 0.3132 (  5250 PWs)   bands (ev):

   -33.3876 -33.3875 -33.1899 -33.1898 -32.9426 -32.9425 -32.7679 -32.7677
   -14.5830 -14.5647 -14.3922 -14.3664 -14.0962 -14.0830 -13.9308 -13.9164
   -10.8151 -10.7891 -10.6416 -10.5862 -10.3180 -10.3102 -10.1690 -10.1271
    -9.6318  -9.5878  -9.4449  -9.3976  -9.2264  -9.1930  -9.0882  -9.0524
     5.1953   5.3321   5.5210   5.6081   6.8694   6.9279   7.1174   7.2010
     7.7314   7.8405   8.0560   8.0752   9.7890   9.8673  10.1682  10.2300
    10.6162  10.6311  10.8978  10.9545  11.6908  11.7599  11.9366  11.9792
    12.1237  12.1851  12.3168  12.3465

          k = 0.2500 0.7217-0.6263 (  5252 PWs)   bands (ev):

   -33.3870 -33.3869 -33.1889 -33.1888 -32.9436 -32.9434 -32.7687 -32.7685
   -14.5854 -14.5674 -14.3906 -14.3619 -14.0990 -14.0872 -13.9315 -13.9213
   -10.8164 -10.7780 -10.6579 -10.5856 -10.2982 -10.2863 -10.1483 -10.1082
    -9.6571  -9.6064  -9.4684  -9.4400  -9.2115  -9.1787  -9.0840  -9.0328
     5.4016   5.4781   5.5309   5.5664   6.6983   6.7386   6.9815   7.0761
     7.8871   7.9800   8.1217   8.2181   9.7559   9.8070  10.1162  10.2173
    10.8340  10.8883  11.1524  11.1772  11.3413  11.3835  11.5120  11.5603
    12.1607  12.1938  12.8156  12.8477

          k = 0.2500-1.0104 0.0000 (  5254 PWs)   bands (ev):

   -33.3750 -33.3750 -33.1761 -33.1761 -32.9318 -32.9318 -32.7572 -32.7572
   -14.6235 -14.6182 -14.4412 -14.4357 -14.1093 -14.1089 -13.9451 -13.9448
   -10.8657 -10.8546 -10.6908 -10.6767 -10.3599 -10.3522 -10.1980 -10.1947
    -9.6448  -9.6395  -9.4615  -9.4467  -9.3164  -9.3056  -9.1793  -9.1749
     5.7965   5.8119   5.9236   5.9614   6.4495   6.5882   6.8098   6.9301
     7.8566   7.9126   8.1426   8.1915   9.8378   9.8787   9.9774  10.0425
    10.7113  10.8286  11.0300  11.1280  11.7908  11.8323  12.0456  12.0785
    12.1380  12.2014  12.3839  12.4664

          k = 0.2500-1.0104 0.3132 (  5260 PWs)   bands (ev):

   -33.3748 -33.3748 -33.1757 -33.1757 -32.9322 -32.9322 -32.7573 -32.7573
   -14.6321 -14.6228 -14.4459 -14.4365 -14.1147 -14.1079 -13.9467 -13.9428
   -10.8720 -10.8562 -10.7113 -10.6747 -10.3589 -10.3314 -10.2002 -10.1650
    -9.6669  -9.6308  -9.4831  -9.4525  -9.3249  -9.2600  -9.1824  -9.1274
     5.6228   5.6480   5.7521   5.7646   6.7649   6.7972   6.9088   7.0507
     7.7269   7.8080   8.1149   8.2241  10.0482  10.0557  10.2731  10.3051
    10.6299  10.6902  10.8215  10.9351  11.8345  11.8672  11.9377  11.9869
    12.2568  12.3086  12.7028  12.7430

          k = 0.2500-1.0104-0.6263 (  5260 PWs)   bands (ev):

   -33.3747 -33.3747 -33.1753 -33.1753 -32.9326 -32.9326 -32.7575 -32.7575
   -14.6365 -14.6278 -14.4515 -14.4410 -14.1131 -14.1120 -13.9453 -13.9449
   -10.8769 -10.8561 -10.7190 -10.6892 -10.3416 -10.3325 -10.1707 -10.1587
    -9.6739  -9.6416  -9.4943  -9.4649  -9.2936  -9.2728  -9.1308  -9.1185
     5.6706   5.6868   5.7331   5.7590   6.5621   6.5950   6.8477   6.9005
     7.8212   7.8936   8.3006   8.3818   9.9789   9.9980  10.1181  10.1248
    10.9932  10.9999  11.1037  11.1120  11.5924  11.6453  11.7800  11.8154
    12.4570  12.5348  12.8957  12.9428

          k = 0.2500-0.4330 0.0000 (  5251 PWs)   bands (ev):

   -33.3901 -33.3899 -33.1892 -33.1891 -32.9426 -32.9424 -32.7660 -32.7658
   -14.5969 -14.5799 -14.3902 -14.3749 -14.0862 -14.0802 -13.9087 -13.9002
   -10.8460 -10.8200 -10.6261 -10.6096 -10.3117 -10.2890 -10.1441 -10.1037
    -9.6398  -9.6265  -9.3889  -9.3734  -9.3097  -9.2855  -9.0149  -9.0047
     4.5312   4.6467   5.9957   6.0113   6.6374   6.8467   7.0763   7.2492
     8.1013   8.1841   8.4179   8.4791   9.6649   9.6844  10.2295  10.3094
    10.5081  10.6464  11.1240  11.2461  11.7129  11.7793  12.0863  12.1126
    12.3322  12.4293  12.6269  12.6890

          k = 0.2500-0.4330 0.3132 (  5259 PWs)   bands (ev):

   -33.3893 -33.3891 -33.1883 -33.1882 -32.9437 -32.9435 -32.7666 -32.7665
   -14.6025 -14.5795 -14.3864 -14.3707 -14.0881 -14.0832 -13.9122 -13.9058
   -10.8734 -10.8052 -10.6170 -10.5979 -10.2979 -10.2758 -10.1335 -10.0806
    -9.6671  -9.6267  -9.4258  -9.4002  -9.3255  -9.2490  -9.0095  -8.9920
     4.7484   4.8825   5.9372   5.9747   6.7106   6.7604   6.8891   6.9770
     8.2944   8.4429   8.4941   8.5367   9.4122   9.4388  10.0501  10.0989
    10.5660  10.6331  11.0363  11.0536  11.6404  11.7721  11.9605  12.0306
    12.4155  12.4923  12.5654  12.6477

          k = 0.2500-0.4330-0.6263 (  5266 PWs)   bands (ev):

   -33.3884 -33.3883 -33.1875 -33.1873 -32.9449 -32.9447 -32.7673 -32.7671
   -14.6008 -14.5712 -14.3726 -14.3563 -14.1027 -14.0941 -13.9266 -13.9162
   -10.8818 -10.7958 -10.5990 -10.5686 -10.2982 -10.2821 -10.1405 -10.1031
    -9.6900  -9.6085  -9.4425  -9.4239  -9.3266  -9.2137  -8.9967  -8.9911
     5.1598   5.2391   5.9477   5.9797   6.5416   6.5755   7.0424   7.0824
     7.8713   7.9888   8.1737   8.2474   9.3682   9.4404  10.1529  10.1754
    10.6370  10.6708  11.3274  11.4113  11.5208  11.5576  11.6006  11.7152
    12.4383  12.4755  12.5865  12.6628

          k =-0.5000-0.2887 0.0000 (  5254 PWs)   bands (ev):

   -33.4016 -33.4016 -33.2055 -33.2055 -32.9511 -32.9511 -32.7769 -32.7769
   -14.5480 -14.5480 -14.3378 -14.3378 -14.0411 -14.0411 -13.8846 -13.8846
   -10.7684 -10.7684 -10.5583 -10.5583 -10.2554 -10.2554 -10.1024 -10.1024
    -9.5234  -9.5234  -9.3713  -9.3713  -9.1296  -9.1296  -8.9806  -8.9806
     4.5621   4.5621   4.8924   4.8924   6.9513   6.9513   7.0849   7.0849
     8.4657   8.4657   8.7049   8.7049   9.4156   9.4156   9.9015   9.9015
    10.8251  10.8251  11.2095  11.2095  11.9518  11.9518  12.1046  12.1046
    12.3754  12.3754  12.5330  12.5331

          k =-0.5000-0.2887 0.3132 (  5256 PWs)   bands (ev):

   -33.4004 -33.4003 -33.2040 -33.2040 -32.9527 -32.9527 -32.7783 -32.7783
   -14.5382 -14.5277 -14.3286 -14.3229 -14.0609 -14.0535 -13.9040 -13.8893
   -10.7610 -10.7311 -10.5621 -10.5343 -10.2667 -10.2367 -10.1307 -10.0772
    -9.5556  -9.5368  -9.4275  -9.3971  -9.1268  -9.1074  -8.9868  -8.9670
     4.7698   4.8198   5.0525   5.1497   6.6318   6.7203   7.2521   7.2719
     7.9729   8.0089   8.6594   8.7006   9.4529   9.4965   9.8236   9.9093
    10.8563  10.9067  11.2256  11.2618  11.5105  11.5848  12.0652  12.1718
    12.2721  12.3114  12.3570  12.4357

          k =-0.5000-0.2887-0.6263 (  5256 PWs)   bands (ev):

   -33.3991 -33.3991 -33.2024 -33.2024 -32.9544 -32.9544 -32.7797 -32.7797
   -14.5169 -14.5169 -14.3129 -14.3129 -14.0743 -14.0743 -13.9093 -13.9093
   -10.7238 -10.7238 -10.5379 -10.5379 -10.2511 -10.2511 -10.1023 -10.1023
    -9.5665  -9.5665  -9.4526  -9.4526  -9.1074  -9.1074  -8.9737  -8.9737
     5.1586   5.1586   5.3115   5.3115   6.4354   6.4354   7.0817   7.0817
     7.8821   7.8821   8.4480   8.4480   9.6345   9.6345   9.7635   9.7635
    11.0529  11.0529  11.4333  11.4333  11.5833  11.5833  11.7280  11.7280
    11.8764  11.8764  12.1979  12.1979

          k =-0.5000 0.2887 0.0000 (  5253 PWs)   bands (ev):

   -33.3894 -33.3892 -33.1899 -33.1898 -32.9421 -32.9419 -32.7665 -32.7664
   -14.5997 -14.5839 -14.3886 -14.3723 -14.0827 -14.0755 -13.9133 -13.9042
   -10.8368 -10.8172 -10.6169 -10.6014 -10.3185 -10.2982 -10.1677 -10.1069
    -9.5946  -9.5757  -9.4358  -9.3954  -9.2863  -9.2594  -9.0451  -9.0362
     4.6532   4.7912   5.8000   5.8962   6.7215   6.8803   7.0031   7.1141
     8.0811   8.1595   8.4069   8.4707   9.6404   9.6672  10.1612  10.2961
    10.6569  10.7727  11.1627  11.2358  11.8569  11.9235  12.0328  12.0873
    12.3099  12.3969  12.5534  12.5650

          k =-0.5000 0.2887 0.3132 (  5250 PWs)   bands (ev):

   -33.3886 -33.3884 -33.1889 -33.1888 -32.9432 -32.9431 -32.7673 -32.7671
   -14.5966 -14.5748 -14.3791 -14.3592 -14.0970 -14.0874 -13.9274 -13.9111
   -10.8402 -10.7979 -10.6209 -10.5758 -10.3200 -10.3063 -10.1623 -10.1216
    -9.6091  -9.5692  -9.4551  -9.4234  -9.2910  -9.2249  -9.0393  -9.0172
     4.8485   4.9507   5.8117   5.8815   6.8677   6.9853   7.1946   7.2097
     7.7751   7.8579   7.9547   8.0140   9.7940   9.8632  10.3255  10.4260
    10.7741  10.8456  11.0242  11.0568  11.6260  11.7012  11.9337  11.9830
    12.2096  12.2622  12.4913  12.5518

          k =-0.5000 0.2887-0.6263 (  5272 PWs)   bands (ev):

   -33.3879 -33.3877 -33.1881 -33.1879 -32.9443 -32.9441 -32.7680 -32.7678
   -14.6030 -14.5775 -14.3712 -14.3527 -14.1004 -14.0908 -13.9296 -13.9190
   -10.8517 -10.7927 -10.6142 -10.5721 -10.3000 -10.2936 -10.1456 -10.0994
    -9.6293  -9.5852  -9.4940  -9.4614  -9.2815  -9.1964  -9.0282  -9.0114
     5.1940   5.2941   5.7716   5.8436   6.5378   6.6107   6.8826   6.9220
     7.9709   8.0367   8.2570   8.3789   9.6742   9.7638  10.0921  10.1365
    11.0653  11.1411  11.2689  11.4088  11.4173  11.4551  11.6407  11.7098
    11.9253  12.0011  12.6539  12.7176

          k =-0.5000-1.4434 0.0000 (  5252 PWs)   bands (ev):

   -33.3750 -33.3750 -33.1762 -33.1762 -32.9317 -32.9317 -32.7572 -32.7572
   -14.6154 -14.6154 -14.4410 -14.4410 -14.1079 -14.1079 -13.9438 -13.9438
   -10.8550 -10.8550 -10.6905 -10.6905 -10.3445 -10.3445 -10.1875 -10.1875
    -9.6325  -9.6325  -9.4721  -9.4721  -9.3254  -9.3254  -9.1964  -9.1964
     5.8354   5.8354   5.9368   5.9368   6.6655   6.6655   6.9344   6.9344
     7.8645   7.8645   8.2284   8.2284  10.1238  10.1238  10.3447  10.3447
    10.6353  10.6353  10.9249  10.9249  11.8921  11.8921  12.1473  12.1473
    12.2154  12.2154  12.5205  12.5205

          k =-0.5000-1.4434 0.3132 (  5244 PWs)   bands (ev):

   -33.3748 -33.3748 -33.1758 -33.1758 -32.9322 -32.9322 -32.7573 -32.7573
   -14.6227 -14.6178 -14.4477 -14.4426 -14.1131 -14.1067 -13.9459 -13.9419
   -10.8729 -10.8472 -10.7202 -10.6738 -10.3511 -10.3194 -10.1944 -10.1522
    -9.6552  -9.6289  -9.5011  -9.4772  -9.3362  -9.2849  -9.1875  -9.1440
     5.7823   5.8212   5.9138   5.9322   6.5967   6.6630   6.8690   6.9858
     7.8053   7.9294   8.2697   8.4388  10.0110  10.0801  10.2376  10.3211
    10.8170  10.8473  11.0207  11.0706  11.5522  11.6055  11.6744  11.7239
    12.1822  12.2419  12.4746  12.5322

          k =-0.5000-1.4434-0.6263 (  5288 PWs)   bands (ev):

   -33.3747 -33.3747 -33.1753 -33.1753 -32.9326 -32.9326 -32.7575 -32.7575
   -14.6251 -14.6251 -14.4494 -14.4494 -14.1117 -14.1117 -13.9442 -13.9442
   -10.8665 -10.8665 -10.7034 -10.7034 -10.3251 -10.3251 -10.1603 -10.1603
    -9.6497  -9.6497  -9.5004  -9.5004  -9.3062  -9.3062  -9.1307  -9.1307
     5.7780   5.7780   5.9031   5.9031   6.5323   6.5323   6.9989   6.9989
     7.8932   7.8932   8.4255   8.4255   9.9330   9.9330  10.1728  10.1728
    11.1101  11.1101  11.2387  11.2387  11.3201  11.3201  11.4758  11.4758
    12.5276  12.5276  12.6287  12.6287

          k = 0.0000-0.5773 0.3132 (  5250 PWs)   bands (ev):

   -33.3884 -33.3882 -33.1893 -33.1892 -32.9431 -32.9429 -32.7672 -32.7671
   -14.5885 -14.5742 -14.3974 -14.3745 -14.0865 -14.0808 -13.9164 -13.9101
   -10.8500 -10.7968 -10.6418 -10.6071 -10.3000 -10.2605 -10.1345 -10.1078
    -9.6776  -9.6316  -9.4116  -9.3909  -9.2899  -9.2284  -9.0375  -9.0137
     4.8939   5.0239   5.7138   5.8382   6.7811   6.8559   6.9803   7.1095
     8.1931   8.2719   8.3882   8.4428   9.5167   9.5773  10.0958  10.1021
    10.4733  10.5788  11.0283  11.0705  11.6396  11.7173  11.8078  11.8875
    12.2590  12.3175  12.6065  12.7167

          k =-0.2500-0.1443 0.3132 (  5261 PWs)   bands (ev):

   -33.4019 -33.4019 -33.2023 -33.2023 -32.9539 -32.9539 -32.7770 -32.7770
   -14.5509 -14.5358 -14.3216 -14.3198 -14.0711 -14.0592 -13.8925 -13.8821
   -10.7975 -10.7483 -10.5432 -10.5287 -10.2866 -10.2542 -10.1066 -10.0500
    -9.5970  -9.5596  -9.3736  -9.3521  -9.1982  -9.1623  -8.9028  -8.8939
     4.3130   4.4094   5.2866   5.3753   6.7737   6.8840   7.1719   7.2473
     7.9224   7.9820   8.4450   8.4633   9.3401   9.4134   9.9943  10.0951
    10.7433  10.7658  11.3188  11.3475  11.7270  11.7557  11.9944  12.0500
    12.2614  12.3048  12.5409  12.5987

          k =-0.2500-0.7217 0.3132 (  5250 PWs)   bands (ev):

   -33.3878 -33.3876 -33.1900 -33.1898 -32.9424 -32.9423 -32.7679 -32.7677
   -14.5930 -14.5800 -14.3938 -14.3695 -14.0819 -14.0769 -13.9212 -13.9153
   -10.8260 -10.7985 -10.6483 -10.5969 -10.2997 -10.2737 -10.1523 -10.1087
    -9.6340  -9.6015  -9.4552  -9.4263  -9.2269  -9.1908  -9.0895  -9.0488
     5.2839   5.3157   5.4225   5.4957   6.6060   6.6672   6.9294   7.0363
     8.2874   8.3588   8.3923   8.4405   9.7278   9.7412  10.1437  10.2341
    10.5699  10.6405  10.8787  10.9151  11.6639  11.7531  11.7902  11.9156
    12.2106  12.2728  12.4802  12.5020

          k =-0.2500 1.0104 0.3132 (  5260 PWs)   bands (ev):

   -33.3748 -33.3748 -33.1757 -33.1757 -32.9322 -32.9322 -32.7573 -32.7573
   -14.6284 -14.6229 -14.4488 -14.4378 -14.1145 -14.1070 -13.9474 -13.9426
   -10.8801 -10.8439 -10.7254 -10.6615 -10.3640 -10.3363 -10.2007 -10.1536
    -9.6600  -9.6495  -9.4908  -9.4352  -9.3179  -9.2793  -9.1691  -9.1317
     5.8173   5.8501   5.9181   5.9389   6.3720   6.4726   6.6869   6.7619
     7.9383   8.0057   8.2421   8.3694   9.7423   9.7591   9.9770  10.0146
    11.0053  11.0399  11.2809  11.2978  11.5026  11.5377  11.8111  11.8699
    12.1878  12.2155  12.4609  12.5037

          k =-0.2500 0.4330 0.3132 (  5259 PWs)   bands (ev):

   -33.3892 -33.3890 -33.1883 -33.1882 -32.9438 -32.9437 -32.7666 -32.7665
   -14.5954 -14.5705 -14.3780 -14.3616 -14.1003 -14.0900 -13.9237 -13.9099
   -10.8586 -10.8044 -10.6243 -10.5692 -10.3121 -10.2912 -10.1536 -10.1224
    -9.6699  -9.6100  -9.4033  -9.3875  -9.3256  -9.2425  -9.0100  -8.9936
     4.8361   4.9072   5.9898   6.0167   6.7584   6.9120   7.2271   7.3172
     7.6257   7.7303   8.0549   8.1436   9.6537   9.7043  10.2259  10.3197
    10.5891  10.6196  10.9856  11.0197  11.6082  11.7314  12.0724  12.1577
    12.4589  12.4863  12.6624  12.7163

          k = 0.5000-0.2887 0.3132 (  5250 PWs)   bands (ev):

   -33.3887 -33.3885 -33.1890 -33.1889 -32.9431 -32.9429 -32.7672 -32.7671
   -14.6060 -14.5858 -14.3826 -14.3665 -14.0852 -14.0779 -13.9176 -13.9101
   -10.8539 -10.8045 -10.6221 -10.5872 -10.3019 -10.2835 -10.1511 -10.0829
    -9.6172  -9.5950  -9.4717  -9.4393  -9.2808  -9.2213  -9.0434  -9.0189
     4.9126   5.0680   5.7573   5.8605   6.5440   6.6029   6.8404   6.9123
     8.3370   8.4292   8.5424   8.6027   9.5061   9.5254  10.0331  10.1084
    10.8079  10.9325  11.1913  11.2415  11.5793  11.6583  11.8452  11.9282
    12.1756  12.2187  12.3978  12.4978

     the Fermi energy is    10.9819 ev

!    total energy              =   -2243.97778084 Ry
     Harris-Foulkes estimate   =   -2243.97778110 Ry
     estimated scf accuracy    <       0.00000039 Ry

     total all-electron energy =    -90248.321166 Ry

     The total energy is the sum of the following terms:

     one-electron contribution =     -44.83239249 Ry
     hartree contribution      =      45.30263934 Ry
     xc contribution           =    -257.09596974 Ry
     ewald contribution        =    -239.23544904 Ry
     one-center paw contrib.   =   -1748.11304013 Ry
     smearing contrib. (-TS)   =      -0.00356878 Ry

     convergence has been achieved in   9 iterations

     Forces acting on atoms (cartesian axes, Ry/au):

     atom    1 type  1   force =    -0.05878073    0.04186106   -0.80043352
     atom    2 type  1   force =     0.16428869    0.11185473   -0.76024780
     atom    3 type  1   force =     0.00974694   -0.78880644   -0.52519279
     atom    4 type  1   force =    -0.04776522   -0.85794576   -0.22004045
     atom    5 type  2   force =     0.04958037   -0.04868454    0.81295569
     atom    6 type  2   force =    -0.15296399   -0.12589597    0.77056421
     atom    7 type  2   force =     0.00459218    0.01103029   -0.01034220
     atom    8 type  2   force =    -0.00213624   -0.00077337   -0.00429119
     atom    9 type  2   force =    -0.01579093    0.79744299    0.53006077
     atom   10 type  2   force =     0.04922894    0.85991701    0.20696727

     Total force =     2.439088     Total SCF correction =     0.001883

     Writing output data file 2412.save
 
     init_run     :      8.09s CPU      8.55s WALL (       1 calls)
     electrons    :    127.39s CPU    130.29s WALL (       1 calls)
     forces       :      2.78s CPU      2.83s WALL (       1 calls)

     Called by init_run:
     wfcinit      :      6.88s CPU      7.12s WALL (       1 calls)
     potinit      :      0.72s CPU      0.75s WALL (       1 calls)

     Called by electrons:
     c_bands      :    104.84s CPU    106.42s WALL (       9 calls)
     sum_band     :     15.58s CPU     16.04s WALL (       9 calls)
     v_of_rho     :      0.11s CPU      0.12s WALL (      10 calls)
     newd         :      1.45s CPU      1.68s WALL (      10 calls)
     PAW_pot      :      6.06s CPU      6.09s WALL (      10 calls)
     mix_rho      :      0.08s CPU      0.09s WALL (       9 calls)

     Called by c_bands:
     init_us_2    :      0.67s CPU      0.68s WALL (     720 calls)
     cegterg      :     89.75s CPU     91.13s WALL (     324 calls)

     Called by sum_band:
     sum_band:bec :      1.43s CPU      1.43s WALL (     324 calls)
     addusdens    :      0.91s CPU      1.14s WALL (       9 calls)

     Called by *egterg:
     h_psi        :     62.20s CPU     63.30s WALL (    1307 calls)
     s_psi        :      6.47s CPU      6.48s WALL (    1307 calls)
     g_psi        :      0.48s CPU      0.48s WALL (     947 calls)
     cdiaghg      :      8.01s CPU      8.06s WALL (    1271 calls)

     Called by h_psi:
     h_psi:pot    :     61.44s CPU     62.49s WALL (    1307 calls)
     h_psi:calbec :      5.47s CPU      5.58s WALL (    1307 calls)
     vloc_psi     :     49.45s CPU     50.38s WALL (    1307 calls)
     add_vuspsi   :      6.51s CPU      6.52s WALL (    1307 calls)

     General routines
     calbec       :      8.23s CPU      8.41s WALL (    1775 calls)
     fft          :      0.07s CPU      0.16s WALL (     197 calls)
     fftw         :     48.23s CPU     49.17s WALL (  253428 calls)
     davcio       :      0.00s CPU      0.04s WALL (      36 calls)
 
     Parallel routines
     fft_scatter  :     17.61s CPU     18.00s WALL (  253625 calls)
 
     PWSCF        :  2m27.51s CPU     4m32.77s WALL

 
   This run was terminated on:  13:47: 4  30Nov2022            

=------------------------------------------------------------------------------=
   JOB DONE.
=------------------------------------------------------------------------------=
Removing 2412 from /home/shaharpit/tmp
