
     Program PWSCF v.6.1 (svn rev. 13369) starts on 16Nov2022 at 10:57: 9 

     This program is part of the open-source Quantum ESPRESSO suite
     for quantum simulation of materials; please cite
         "P. Giannozzi et al., J. Phys.:Condens. Matter 21 395502 (2009);
          URL http://www.quantum-espresso.org", 
     in publications or presentations arising from this work. More details at
     http://www.quantum-espresso.org/quote

     Parallel version (MPI), running on    32 processors
     R & G space division:  proc/nbgrp/npool/nimage =      32
     Reading input from ./hcp_25_0.9.in
Warning: card &IONS ignored
Warning: card 	ION_DYNAMICS='BFGS', ignored
Warning: card / ignored
Warning: card &CELL ignored
Warning: card / ignored

     Current dimensions of program PWSCF are:
     Max number of different atomic species (ntypx) = 10
     Max number of k-points (npk) =  40000
     Max angular momentum in pseudopotentials (lmaxx) =  3
               file Gd.rel-pbe-spdn-kjpaw_psl.1.0.0.UPF: wavefunction(s)  5P 5P renormalized
               file H.pbe-kjpaw_psl.0.1.UPF: wavefunction(s)  1S renormalized

     Subspace diagonalization in iterative solution of the eigenvalue problem:
     a serial algorithm will be used

 
     Parallelization info
     --------------------
     sticks:   dense  smooth     PW     G-vecs:    dense   smooth      PW
     Min          37      37     11                 1177     1177     201
     Max          38      38     12                 1182     1182     206
     Sum        1195    1195    373                37769    37769    6507
 


     bravais-lattice index     =            0
     lattice parameter (alat)  =      13.1873  a.u.
     unit-cell volume          =     792.7371 (a.u.)^3
     number of atoms/cell      =            6
     number of atomic types    =            2
     number of electrons       =        46.00
     number of Kohn-Sham states=           56
     kinetic-energy cutoff     =      50.0000  Ry
     charge density cutoff     =     200.0000  Ry
     convergence threshold     =      1.0E-06
     mixing beta               =       0.7000
     number of iterations used =            8  plain     mixing
     Exchange-correlation      =  SLA  PW   PBX  PBC ( 1  4  3  4 0 0)
     Non magnetic calculation with spin-orbit


     celldm(1)=  13.187265  celldm(2)=   0.000000  celldm(3)=   0.000000
     celldm(4)=   0.000000  celldm(5)=   0.000000  celldm(6)=   0.000000

     crystal axes: (cart. coord. in units of alat)
               a(1) = (   1.000000   0.000000   0.000000 )  
               a(2) = (  -0.250000   0.433008   0.000000 )  
               a(3) = (   0.000000   0.000000   0.798306 )  

     reciprocal axes: (cart. coord. in units 2 pi/alat)
               b(1) = (  1.000000  0.577357  0.000000 )  
               b(2) = (  0.000000  2.309428  0.000000 )  
               b(3) = (  0.000000  0.000000  1.252652 )  


     PseudoPot. # 1 for Gd read from file:
     /home/shaharpit/MeamGdH/dft/qe_potentials/Gd.rel-pbe-spdn-kjpaw_psl.1.0.0.UPF
     MD5 check sum: cf50ec46d1536b4a0251694df1946a53
     Pseudo is Projector augmented-wave + core cor, Zval = 11.0
     Generated using "atomic" code by A. Dal Corso  v.6.2.2
     Shape of augmentation charge: PSQ
     Using radial grid of 1263 points, 10 beta functions with: 
                l(1) =   0
                l(2) =   0
                l(3) =   1
                l(4) =   1
                l(5) =   1
                l(6) =   1
                l(7) =   2
                l(8) =   2
                l(9) =   2
               l(10) =   2
     Q(r) pseudized with 0 coefficients 


     PseudoPot. # 2 for  H read from file:
     /home/shaharpit/MeamGdH/dft/qe_potentials/H.pbe-kjpaw_psl.0.1.UPF
     MD5 check sum: fbb168fef676c0aaadbafd73f5b1efa8
     Pseudo is Projector augmented-wave, Zval =  1.0
     Generated using "atomic" code by A. Dal Corso  v.5.0.2 svn rev. 9415
     Shape of augmentation charge: PSQ
     Using radial grid of  929 points,  2 beta functions with: 
                l(1) =   0
                l(2) =   0
     Q(r) pseudized with 0 coefficients 


     atomic species   valence    mass     pseudopotential
        Gd            11.00   157.25000     Gd( 1.00)
        H              1.00     1.00794      H( 1.00)

     No symmetry found



   Cartesian axes

     site n.     atom                  positions (alat units)
         1           Gd  tau(   1) = (   0.2499750   0.1443214   0.5987297  )
         2           Gd  tau(   2) = (   0.7499750   0.1443214   0.5987297  )
         3           Gd  tau(   3) = (   0.0000250   0.2886861   0.1995766  )
         4           Gd  tau(   4) = (   0.5000250   0.2886861   0.1995766  )
         5           H   tau(   5) = (   0.2603500   0.1351850   0.7733990  )
         6           H   tau(   6) = (   0.7141750   0.1153965   0.7679706  )

     number of k points=    36  gaussian smearing, width (Ry)=  0.0100
                       cart. coord. in units 2pi/alat
        k(    1) = (   0.0000000   0.0000000   0.0000000), wk =   0.0156250
        k(    2) = (   0.0000000   0.0000000   0.3131630), wk =   0.0312500
        k(    3) = (   0.0000000   0.0000000  -0.6263261), wk =   0.0156250
        k(    4) = (   0.0000000   0.5773571   0.0000000), wk =   0.0312500
        k(    5) = (   0.0000000   0.5773571   0.3131630), wk =   0.0312500
        k(    6) = (   0.0000000   0.5773571  -0.6263261), wk =   0.0312500
        k(    7) = (   0.0000000  -1.1547142   0.0000000), wk =   0.0156250
        k(    8) = (   0.0000000  -1.1547142   0.3131630), wk =   0.0312500
        k(    9) = (   0.0000000  -1.1547142  -0.6263261), wk =   0.0156250
        k(   10) = (   0.2500000   0.1443393   0.0000000), wk =   0.0312500
        k(   11) = (   0.2500000   0.1443393   0.3131630), wk =   0.0312500
        k(   12) = (   0.2500000   0.1443393  -0.6263261), wk =   0.0312500
        k(   13) = (   0.2500000   0.7216964   0.0000000), wk =   0.0312500
        k(   14) = (   0.2500000   0.7216964   0.3131630), wk =   0.0312500
        k(   15) = (   0.2500000   0.7216964  -0.6263261), wk =   0.0312500
        k(   16) = (   0.2500000  -1.0103750   0.0000000), wk =   0.0312500
        k(   17) = (   0.2500000  -1.0103750   0.3131630), wk =   0.0312500
        k(   18) = (   0.2500000  -1.0103750  -0.6263261), wk =   0.0312500
        k(   19) = (   0.2500000  -0.4330178   0.0000000), wk =   0.0312500
        k(   20) = (   0.2500000  -0.4330178   0.3131630), wk =   0.0312500
        k(   21) = (   0.2500000  -0.4330178  -0.6263261), wk =   0.0312500
        k(   22) = (  -0.5000000  -0.2886786   0.0000000), wk =   0.0156250
        k(   23) = (  -0.5000000  -0.2886786   0.3131630), wk =   0.0312500
        k(   24) = (  -0.5000000  -0.2886786  -0.6263261), wk =   0.0156250
        k(   25) = (  -0.5000000   0.2886786   0.0000000), wk =   0.0312500
        k(   26) = (  -0.5000000   0.2886786   0.3131630), wk =   0.0312500
        k(   27) = (  -0.5000000   0.2886786  -0.6263261), wk =   0.0312500
        k(   28) = (  -0.5000000  -1.4433928   0.0000000), wk =   0.0156250
        k(   29) = (  -0.5000000  -1.4433928   0.3131630), wk =   0.0312500
        k(   30) = (  -0.5000000  -1.4433928  -0.6263261), wk =   0.0156250
        k(   31) = (   0.0000000  -0.5773571   0.3131630), wk =   0.0312500
        k(   32) = (  -0.2500000  -0.1443393   0.3131630), wk =   0.0312500
        k(   33) = (  -0.2500000  -0.7216964   0.3131630), wk =   0.0312500
        k(   34) = (  -0.2500000   1.0103750   0.3131630), wk =   0.0312500
        k(   35) = (  -0.2500000   0.4330178   0.3131630), wk =   0.0312500
        k(   36) = (   0.5000000  -0.2886786   0.3131630), wk =   0.0312500

     Dense  grid:    37769 G-vectors     FFT dimensions: (  60,  30,  48)

     Estimated max dynamical RAM per process >      15.62MB

     Estimated total allocated dynamical RAM >     499.87MB

     Initial potential from superposition of free atoms

     starting charge   45.92379, renormalised to   46.00000
     Starting wfc are  108 randomized atomic wfcs
     Checking if some PAW data can be deallocated... 

     total cpu time spent up to now is        3.6 secs

     per-process dynamical memory:    63.6 Mb

     Self-consistent Calculation

     iteration #  1     ecut=    50.00 Ry     beta=0.70
     Davidson diagonalization with overlap
     ethr =  1.00E-02,  avg # of iterations =  2.0

     total cpu time spent up to now is        7.3 secs

     total energy              =   -2239.65804912 Ry
     Harris-Foulkes estimate   =   -2240.12497215 Ry
     estimated scf accuracy    <       0.65167995 Ry

     iteration #  2     ecut=    50.00 Ry     beta=0.70
     Davidson diagonalization with overlap
     ethr =  1.42E-03,  avg # of iterations =  3.9

     total cpu time spent up to now is       12.7 secs

     total energy              =   -2239.35415265 Ry
     Harris-Foulkes estimate   =   -2240.41591106 Ry
     estimated scf accuracy    <       3.24201283 Ry

     iteration #  3     ecut=    50.00 Ry     beta=0.70
     Davidson diagonalization with overlap
     ethr =  6.35E-04,  avg # of iterations =  3.0

     total cpu time spent up to now is       21.3 secs

     total energy              =   -2239.92005670 Ry
     Harris-Foulkes estimate   =   -2239.95541515 Ry
     estimated scf accuracy    <       0.10725615 Ry

     iteration #  5     ecut=    50.00 Ry     beta=0.70
     Davidson diagonalization with overlap

     total cpu time spent up to now is       28.8 secs

     total energy              =   -2239.93840424 Ry
     Harris-Foulkes estimate   =   -2239.93875747 Ry
     estimated scf accuracy    <       0.00109537 Ry

     iteration #  7     ecut=    50.00 Ry     beta=0.70
     Davidson diagonalization with overlap
ta=0.70
     Davidson diagonalization with overlap
     ethr =  6.24E-05,  avg # of iterations =  2.8
     ethr =  2.38E-06,  avg # of iterations =  6.2

     total cpu time spent up to now is       34.6 secs

     total energy              =   -2239.93861654 Ry
     Harris-Foulkes estimate   =   -2239.93870768 Ry
     estimated scf accuracy    <       0.00019150 Ry

     iteration #  8     ecut=    50.00 Ry     beta=0.70
     Davidson diagonalization with overlap
     ethr =  4.16E-07,  avg # of iterations =  3.4

     total cpu time spent up to now is       38.8 secs

     total energy              =   -2239.93863875 Ry
     Harris-Foulkes estimate   =   -2239.93872188 Ry
     estimated scf accuracy    <       0.00027011 Ry

     iteration #  9     ecut=    50.00 Ry     beta=0.70
     Davidson diagonalization with overlap

     total cpu time spent up to now is       42.5 secs

     total energy              =   -2239.93867429 Ry
     Harris-Foulkes estimate   =   -2239.93867915 Ry
     estimated scf accuracy    <       0.00001213 Ry

     iteration # 10     ecut=    50.00 Ry     beta=0.70
     Davidson diagonalization with overlap
     ethr =  2.64E-08,  avg # of iterations =  3.2

     total cpu time spent up to now is       46.4 secs

     total energy              =   -2239.93867717 Ry
     Harris-Foulkes estimate   =   -2239.93867765 Ry
     estimated scf accuracy    <       0.00000104 Ry

     iteration # 11     ecut=    50.00 Ry     beta=0.70
     Davidson diagonalization with overlap

     total cpu time spent up to now is       50.4 secs

     End of self-consistent calculation

          k = 0.0000 0.0000 0.0000 (  4677 PWs)   bands (ev):

   -32.1817 -32.1817 -32.0763 -32.0763 -31.7998 -31.7998 -31.7290 -31.7290
   -13.1383 -13.1383 -13.0698 -13.0698 -12.9243 -12.9243 -12.5917 -12.5917
    -9.3527  -9.3527  -9.2458  -9.2458  -8.9219  -8.9219  -8.5217  -8.5217
    -8.3138  -8.3138  -8.2497  -8.2497  -8.0359  -8.0359  -7.5693  -7.5693
     6.2241   6.2241   7.9736   7.9736   8.8952   8.8952  10.3308  10.3308
    10.4598  10.4598  11.4652  11.4652  11.7866  11.7866  13.0441  13.0441
    13.2417  13.2417  13.5364  13.5364  13.6144  13.6144  13.7593  13.7593

          k = 0.0000 0.0000 0.3132 (  4762 PWs)   bands (ev):

   -32.1767 -32.1767 -32.0746 -32.0746 -31.8058 -31.8058 -31.7304 -31.7304
   -13.1136 -13.0819 -13.0471 -13.0311 -12.9628 -12.9108 -12.6544 -12.6529
    -9.3729  -9.3346  -9.1712  -9.1694  -8.9269  -8.9047  -8.5774  -8.4691
    -8.4227  -8.4093  -8.2452  -8.2449  -8.0606  -7.9952  -7.5774  -7.5773
     6.7710   6.7809   7.9351   7.9423   9.0063   9.0103  10.0492  10.0700
    10.4486  10.4793  10.9290  10.9447  11.6064  11.6346  12.7645  12.7807
    13.1357  13.1412  13.3597  13.3867  13.5266  13.5438  13.6362  13.6390

          k = 0.0000 0.0000-0.6263 (  4752 PWs)   bands (ev):

   -32.1715 -32.1715 -32.0727 -32.0727 -31.8120 -31.8120 -31.7317 -31.7317
   -13.0866 -13.0866 -12.9683 -12.9683 -12.9225 -12.9225 -12.7530 -12.7530
    -9.3569  -9.3569  -9.0620  -9.0620  -8.9103  -8.9103  -8.5812  -8.5812
    -8.5009  -8.5009  -8.2390  -8.2390  -8.0117  -8.0117  -7.5854  -7.5854
     7.7910   7.7910   7.9641   7.9641   8.8991   8.8991   9.2780   9.2780
    10.0269  10.0269  10.8259  10.8259  11.5927  11.5927  12.7265  12.7265
    13.0988  13.0988  13.3546  13.3546  13.5253  13.5253  13.7798  13.7798

          k = 0.0000 0.5774 0.0000 (  4740 PWs)   bands (ev):

   -32.1491 -32.1491 -32.0690 -32.0689 -31.7769 -31.7765 -31.7249 -31.7247
   -13.1434 -13.1085 -13.0792 -13.0486 -12.9271 -12.9093 -12.7541 -12.7248
    -9.3695  -9.3399  -9.3096  -9.2573  -8.8418  -8.8402  -8.6502  -8.6277
    -8.5834  -8.5435  -8.4052  -8.3937  -8.1325  -8.0893  -7.8395  -7.8339
     7.2293   7.2954   8.0664   8.1798   9.7699   9.9337  10.6968  10.7109
    11.0802  11.2283  11.4008  11.4544  11.5437  11.6282  11.9028  12.0217
    12.6426  12.6939  13.0632  13.0820  13.2322  13.2876  13.6914  13.7442

          k = 0.0000 0.5774 0.3132 (  4725 PWs)   bands (ev):

   -32.1467 -32.1467 -32.0673 -32.0672 -31.7799 -31.7795 -31.7263 -31.7261
   -13.1194 -13.0952 -13.0532 -13.0305 -12.9482 -12.9187 -12.7937 -12.7593
    -9.3861  -9.3108  -9.2685  -9.2329  -8.8410  -8.8283  -8.6764  -8.6599
    -8.5986  -8.5590  -8.4521  -8.3815  -8.1141  -8.0404  -7.8486  -7.8216
     7.4800   7.5319   8.0942   8.1744   9.9264  10.0947  10.5654  10.6340
    10.9596  11.0288  11.2102  11.3560  11.7383  11.8167  11.8494  11.8928
    12.4324  12.5194  12.5787  12.6030  12.9477  13.0368  13.6679  13.7249

          k = 0.0000 0.5774-0.6263 (  4722 PWs)   bands (ev):

   -32.1441 -32.1441 -32.0655 -32.0655 -31.7832 -31.7828 -31.7277 -31.7274
   -13.1088 -13.0522 -13.0238 -12.9879 -12.9607 -12.9292 -12.8492 -12.8287
    -9.4079  -9.2842  -9.2168  -9.1826  -8.8460  -8.8346  -8.7136  -8.6947
    -8.5999  -8.5889  -8.4401  -8.4232  -8.1147  -7.9965  -7.8242  -7.8188
     7.9964   8.0169   8.1205   8.1436   9.6836   9.7114  10.2978  10.3542
    10.6657  10.7286  11.2975  11.4805  11.8739  11.8897  12.0189  12.0821
    12.4450  12.5379  12.5564  12.6703  12.8542  12.9217  13.0577  13.0891

          k = 0.0000-1.1547 0.0000 (  4688 PWs)   bands (ev):

   -32.1237 -32.1237 -32.0536 -32.0536 -31.7588 -31.7588 -31.7155 -31.7155
   -13.0918 -13.0918 -13.0610 -13.0610 -12.9524 -12.9524 -12.8986 -12.8986
    -9.3926  -9.3926  -9.3006  -9.3006  -8.9363  -8.9363  -8.9098  -8.9098
    -8.5396  -8.5396  -8.4952  -8.4952  -8.1031  -8.1031  -8.0081  -8.0081
     7.9339   7.9339   8.0635   8.0635  10.2506  10.2506  10.3800  10.3800
    10.4545  10.4545  10.5529  10.5529  11.4417  11.4417  11.5370  11.5370
    12.9821  12.9821  13.1637  13.1637  13.2722  13.2722  13.4003  13.4003

          k = 0.0000-1.1547 0.3132 (  4724 PWs)   bands (ev):

   -32.1231 -32.1231 -32.0528 -32.0528 -31.7596 -31.7596 -31.7160 -31.7160
   -13.1126 -13.1030 -13.0554 -13.0346 -12.9887 -12.9634 -12.9024 -12.8889
    -9.4038  -9.4020  -9.3119  -9.2976  -8.9336  -8.9259  -8.8976  -8.8944
    -8.5793  -8.5674  -8.4638  -8.4447  -8.0967  -8.0811  -7.9923  -7.9763
     7.8764   7.8910   7.9783   7.9864  10.1126  10.1389  10.2249  10.2460
    10.4615  10.4817  10.5331  10.5486  11.6021  11.6193  11.6422  11.6556
    12.7660  12.7816  12.9404  12.9617  13.6309  13.6370  13.7208  13.7339

          k = 0.0000-1.1547-0.6263 (  4728 PWs)   bands (ev):

   -32.1226 -32.1226 -32.0519 -32.0519 -31.7605 -31.7605 -31.7165 -31.7165
   -13.1086 -13.1086 -13.0645 -13.0645 -12.9678 -12.9678 -12.9043 -12.9043
    -9.4059  -9.4059  -9.3179  -9.3179  -8.9251  -8.9251  -8.8867  -8.8867
    -8.5333  -8.5333  -8.4871  -8.4871  -8.0499  -8.0499  -7.9772  -7.9772
     7.8863   7.8863   7.9654   7.9654   9.6944   9.6944   9.7609   9.7609
    10.7294  10.7294  10.8084  10.8084  11.6035  11.6035  11.6706  11.6706
    13.2078  13.2078  13.4043  13.4043  14.0493  14.0493  14.0870  14.0870

          k = 0.2500 0.1443 0.0000 (  4728 PWs)   bands (ev):

   -32.1737 -32.1737 -32.0847 -32.0847 -31.7940 -31.7938 -31.7350 -31.7347
   -13.1421 -13.1369 -13.0868 -13.0717 -12.8734 -12.8591 -12.6344 -12.6289
    -9.3660  -9.3248  -9.2732  -9.2497  -8.8461  -8.8136  -8.5023  -8.4794
    -8.3830  -8.3759  -8.3112  -8.3045  -7.9894  -7.9791  -7.6560  -7.6512
     6.5178   6.5602   7.7941   7.8335   9.1643   9.2708  10.2581  10.2855
    10.7479  10.7603  11.4967  11.5875  11.8477  11.8721  12.8345  12.8455
    13.0661  13.0781  13.3305  13.3399  13.4642  13.4818  13.7161  13.7281

          k = 0.2500 0.1443 0.3132 (  4740 PWs)   bands (ev):

   -32.1695 -32.1694 -32.0820 -32.0820 -31.7991 -31.7989 -31.7374 -31.7372
   -13.1148 -13.0855 -13.0424 -13.0251 -12.9264 -12.8744 -12.6861 -12.6847
    -9.3263  -9.3219  -9.2116  -9.1822  -8.8637  -8.8206  -8.5615  -8.4778
    -8.4628  -8.4287  -8.3168  -8.3062  -7.9971  -7.9380  -7.6634  -7.6600
     6.9798   7.0159   7.9343   7.9629   9.3118   9.4164  10.0640  10.1165
    10.5983  10.6345  10.9254  10.9619  11.7533  11.7840  12.4950  12.5171
    12.8428  12.8683  13.0246  13.0357  13.6281  13.6562  13.7358  13.7426

          k = 0.2500 0.1443-0.6263 (  4760 PWs)   bands (ev):

   -32.1651 -32.1651 -32.0793 -32.0793 -31.8045 -31.8042 -31.7397 -31.7394
   -13.0760 -13.0533 -12.9752 -12.9577 -12.9215 -12.9069 -12.7826 -12.7727
    -9.3238  -9.3015  -9.1089  -9.0925  -8.8527  -8.8436  -8.6051  -8.5970
    -8.5027  -8.4814  -8.3117  -8.3075  -7.9654  -7.9573  -7.6606  -7.6589
     7.8835   7.8957   8.0356   8.0491   9.1709   9.2179   9.5279   9.5740
    10.0778  10.1007  10.8410  10.9108  11.6779  11.6902  12.3039  12.3169
    12.9906  12.9959  13.2419  13.2683  13.4352  13.4701  13.5858  13.6098

          k = 0.2500 0.7217 0.0000 (  4726 PWs)   bands (ev):

   -32.1438 -32.1438 -32.0744 -32.0744 -31.7728 -31.7725 -31.7290 -31.7287
   -13.1409 -13.1167 -13.0851 -13.0557 -12.8622 -12.8489 -12.8083 -12.7786
    -9.3821  -9.3431  -9.3135  -9.2600  -8.7696  -8.7603  -8.7315  -8.7143
    -8.5282  -8.4973  -8.4580  -8.4300  -8.0154  -8.0047  -7.9312  -7.9192
     7.6179   7.6674   7.7694   7.8280  10.2320  10.3044  10.4072  10.4827
    11.0728  11.0868  11.2135  11.2312  11.5602  11.6187  11.6652  11.7093
    12.7317  12.8190  13.0325  13.0531  13.2154  13.2542  13.4022  13.4771

          k = 0.2500 0.7217 0.3132 (  4734 PWs)   bands (ev):

   -32.1420 -32.1420 -32.0720 -32.0720 -31.7751 -31.7748 -31.7311 -31.7309
   -13.1215 -13.0946 -13.0606 -13.0349 -12.8873 -12.8822 -12.8324 -12.8069
    -9.3586  -9.3337  -9.2832  -9.2388  -8.7776  -8.7655  -8.7484  -8.7271
    -8.5352  -8.5304  -8.4641  -8.4475  -8.0022  -7.9845  -7.9193  -7.9026
     7.7364   7.7773   7.8992   7.9401  10.2116  10.2862  10.4273  10.5597
    10.9274  10.9556  10.9872  11.0056  11.6516  11.7283  11.9938  12.0295
    12.3803  12.4444  12.5041  12.5564  13.2604  13.3210  13.4042  13.4364

          k = 0.2500 0.7217-0.6263 (  4756 PWs)   bands (ev):

   -32.1401 -32.1401 -32.0696 -32.0696 -31.7775 -31.7772 -31.7334 -31.7331
   -13.0855 -13.0547 -13.0303 -12.9971 -12.9337 -12.9187 -12.8728 -12.8502
    -9.3369  -9.3099  -9.2507  -9.2090  -8.8080  -8.7841  -8.7683  -8.7512
    -8.5336  -8.5194  -8.4950  -8.4781  -7.9849  -7.9625  -7.9068  -7.8854
     7.9742   7.9949   8.1085   8.1294   9.9928  10.0328  10.0581  10.0938
    10.9118  10.9634  11.1140  11.1649  11.8068  11.8583  11.9465  11.9738
    12.5031  12.5524  12.5881  12.6124  12.8106  12.8395  12.8831  12.9023

          k = 0.2500-1.0104 0.0000 (  4738 PWs)   bands (ev):

   -32.1237 -32.1237 -32.0537 -32.0537 -31.7588 -31.7588 -31.7155 -31.7154
   -13.1005 -13.0971 -13.0567 -13.0492 -12.9538 -12.9473 -12.8936 -12.8915
    -9.3826  -9.3762  -9.3038  -9.2938  -8.9135  -8.8967  -8.8776  -8.8581
    -8.5874  -8.5824  -8.5251  -8.5155  -8.1367  -8.1062  -8.0580  -8.0345
     7.9728   7.9864   8.1136   8.1230  10.4827  10.4981  10.6171  10.6192
    10.6842  10.7057  10.7386  10.7516  11.4874  11.5283  11.6143  11.6449
    12.7368  12.7734  12.9419  12.9738  13.2409  13.2663  13.4030  13.4149

          k = 0.2500-1.0104 0.3132 (  4718 PWs)   bands (ev):

   -32.1232 -32.1232 -32.0528 -32.0528 -31.7596 -31.7596 -31.7160 -31.7160
   -13.1073 -13.0975 -13.0613 -13.0477 -12.9723 -12.9511 -12.9046 -12.8883
    -9.4081  -9.3878  -9.3029  -9.2858  -8.9019  -8.8944  -8.8599  -8.8576
    -8.6102  -8.5953  -8.5210  -8.4857  -8.1227  -8.0789  -8.0357  -7.9991
     7.9450   7.9615   8.0585   8.0702  10.2585  10.3003  10.4430  10.4989
    10.7356  10.7523  10.7688  10.7816  11.8363  11.8730  11.9042  11.9343
    12.2962  12.3258  12.5675  12.5944  13.4404  13.4634  13.6131  13.6429

          k = 0.2500-1.0104-0.6263 (  4708 PWs)   bands (ev):

   -32.1226 -32.1226 -32.0519 -32.0519 -31.7605 -31.7605 -31.7165 -31.7165
   -13.1112 -13.1091 -13.0544 -13.0517 -12.9723 -12.9668 -12.9040 -12.9010
    -9.4221  -9.3828  -9.3270  -9.2754  -8.9036  -8.8911  -8.8616  -8.8503
    -8.5843  -8.5674  -8.5259  -8.5196  -8.1044  -8.0571  -8.0044  -7.9691
     7.9439   7.9658   8.0068   8.0277   9.9968  10.0073  10.0670  10.0753
    11.0037  11.0538  11.1156  11.1683  11.7709  11.8041  11.8352  11.8611
    12.8073  12.8559  12.9525  12.9849  13.1995  13.2190  13.2644  13.2793

          k = 0.2500-0.4330 0.0000 (  4737 PWs)   bands (ev):

   -32.1538 -32.1538 -32.0641 -32.0641 -31.7803 -31.7799 -31.7214 -31.7213
   -13.1444 -13.1033 -13.0656 -13.0302 -12.9774 -12.9574 -12.7206 -12.6946
    -9.3615  -9.3311  -9.3069  -9.2530  -8.8890  -8.8419  -8.6825  -8.6437
    -8.5632  -8.4913  -8.4146  -8.3616  -8.1854  -8.1436  -7.8009  -7.7854
     7.0298   7.0985   8.1747   8.3109   9.6431   9.8184  10.5569  10.5702
    11.3044  11.4597  11.6046  11.6484  11.7306  11.8097  12.1317  12.1541
    12.6742  12.7685  12.8478  12.8862  13.2594  13.3130  13.5914  13.6317

          k = 0.2500-0.4330 0.3132 (  4739 PWs)   bands (ev):

   -32.1507 -32.1507 -32.0630 -32.0630 -31.7841 -31.7837 -31.7222 -31.7220
   -13.1138 -13.0756 -13.0619 -13.0208 -12.9816 -12.9475 -12.7688 -12.7452
    -9.4053  -9.3031  -9.2586  -9.2075  -8.8690  -8.8322  -8.7173  -8.6399
    -8.5918  -8.5557  -8.4312  -8.3847  -8.1770  -8.0874  -7.7930  -7.7713
     7.4524   7.4956   8.1399   8.2170   9.7060   9.8745  10.6601  10.6917
    10.9114  10.9349  11.3977  11.4596  11.4977  11.6225  12.2392  12.2938
    12.5006  12.5544  12.6005  12.6925  12.9347  13.0983  13.6244  13.7300

          k = 0.2500-0.4330-0.6263 (  4718 PWs)   bands (ev):

   -32.1478 -32.1477 -32.0617 -32.0617 -31.7879 -31.7874 -31.7229 -31.7227
   -13.1240 -13.0591 -13.0157 -12.9921 -12.9630 -12.9386 -12.8324 -12.8131
    -9.4430  -9.2842  -9.1924  -9.1567  -8.8705  -8.8513  -8.6941  -8.6676
    -8.6260  -8.6136  -8.4210  -8.3985  -8.1793  -8.0286  -7.7911  -7.7715
     8.0167   8.0400   8.1102   8.1275   9.6004   9.6480  10.2151  10.3001
    10.8274  10.8775  11.3892  11.5468  11.7484  11.8521  11.9263  11.9620
    12.3381  12.4855  12.8205  12.8546  12.9189  12.9780  13.0196  13.0421

          k =-0.5000-0.2887 0.0000 (  4734 PWs)   bands (ev):

   -32.1637 -32.1637 -32.0949 -32.0949 -31.7866 -31.7866 -31.7423 -31.7423
   -13.1411 -13.1411 -13.0842 -13.0842 -12.7748 -12.7748 -12.7089 -12.7089
    -9.3389  -9.3389  -9.2756  -9.2756  -8.6436  -8.6436  -8.5663  -8.5663
    -8.4302  -8.4302  -8.3698  -8.3698  -7.8587  -7.8587  -7.8111  -7.8111
     7.1762   7.1762   7.3243   7.3243   9.7966   9.7966   9.9687   9.9687
    11.5042  11.5042  11.5802  11.5802  11.8567  11.8567  11.9739  11.9739
    12.9735  12.9735  13.1904  13.1905  13.5676  13.5676  13.6789  13.6789

          k =-0.5000-0.2887 0.3132 (  4726 PWs)   bands (ev):

   -32.1606 -32.1606 -32.0911 -32.0911 -31.7903 -31.7903 -31.7461 -31.7461
   -13.1046 -13.0953 -13.0493 -13.0323 -12.8302 -12.8080 -12.7569 -12.7478
    -9.3028  -9.2764  -9.2379  -9.2246  -8.6931  -8.6645  -8.6089  -8.6017
    -8.4873  -8.4211  -8.4192  -8.3684  -7.8609  -7.8386  -7.8200  -7.7920
     7.4479   7.4770   7.6620   7.6891   9.7794   9.9102  10.0827  10.2305
    10.7689  10.8240  10.8789  10.9200  11.9454  12.0296  12.1631  12.2178
    12.3758  12.4022  12.6992  12.7399  13.5356  13.5885  13.7040  13.7603

          k =-0.5000-0.2887-0.6263 (  4748 PWs)   bands (ev):

   -32.1574 -32.1574 -32.0871 -32.0871 -31.7941 -31.7941 -31.7500 -31.7500
   -13.0381 -13.0381 -12.9775 -12.9775 -12.8838 -12.8838 -12.8160 -12.8160
    -9.2305  -9.2305  -9.1779  -9.1779  -8.7343  -8.7343  -8.6662  -8.6662
    -8.4647  -8.4647  -8.4044  -8.4044  -7.8401  -7.8401  -7.8052  -7.8052
     7.9550   7.9550   8.1340   8.1340   9.6630   9.6630   9.8290   9.8290
    10.4057  10.4057  10.6778  10.6778  11.8051  11.8051  11.9126  11.9126
    12.7381  12.7381  12.8749  12.8749  13.0753  13.0753  13.1416  13.1416

          k =-0.5000 0.2887 0.0000 (  4740 PWs)   bands (ev):

   -32.1492 -32.1491 -32.0689 -32.0689 -31.7768 -31.7764 -31.7250 -31.7247
   -13.1426 -13.1088 -13.0805 -13.0432 -12.9361 -12.9090 -12.7497 -12.7252
    -9.3701  -9.3397  -9.3073  -9.2574  -8.8430  -8.8380  -8.6505  -8.6299
    -8.5876  -8.5456  -8.4047  -8.3881  -8.1310  -8.0877  -7.8431  -7.8334
     7.2198   7.2837   8.0520   8.1682   9.8142   9.9758  10.6977  10.7187
    11.0740  11.2235  11.4773  11.5291  11.5810  11.6283  11.8242  11.9342
    12.5729  12.6341  13.1101  13.1441  13.3569  13.4090  13.5991  13.6440

          k =-0.5000 0.2887 0.3132 (  4725 PWs)   bands (ev):

   -32.1467 -32.1467 -32.0673 -32.0673 -31.7799 -31.7795 -31.7263 -31.7260
   -13.1197 -13.0849 -13.0703 -13.0310 -12.9461 -12.9107 -12.7818 -12.7740
    -9.3873  -9.3205  -9.2768  -9.2202  -8.8382  -8.8218  -8.6725  -8.6480
    -8.6082  -8.5512  -8.4410  -8.4023  -8.1217  -8.0523  -7.8389  -7.8184
     7.5410   7.5715   8.0293   8.0896   9.9306  10.0683  10.6295  10.6523
    10.7858  10.8270  11.2084  11.3381  11.6889  11.8320  12.1669  12.2205
    12.4365  12.4650  12.5262  12.6033  12.9430  13.0393  13.6473  13.7309

          k =-0.5000 0.2887-0.6263 (  4722 PWs)   bands (ev):

   -32.1441 -32.1441 -32.0655 -32.0654 -31.7832 -31.7828 -31.7277 -31.7274
   -13.1089 -13.0562 -13.0229 -12.9852 -12.9582 -12.9309 -12.8492 -12.8290
    -9.4057  -9.2867  -9.2159  -9.1833  -8.8445  -8.8343  -8.7144  -8.6951
    -8.6027  -8.5852  -8.4403  -8.4230  -8.1137  -7.9954  -7.8260  -7.8202
     7.9937   8.0131   8.0975   8.1189   9.7020   9.7344  10.3215  10.3764
    10.6602  10.7228  11.3903  11.5775  11.8466  11.8606  11.9990  12.0419
    12.4163  12.5183  12.5792  12.6917  12.8084  12.8714  13.0710  13.1072

          k =-0.5000-1.4434 0.0000 (  4746 PWs)   bands (ev):

   -32.1237 -32.1237 -32.0537 -32.0537 -31.7587 -31.7587 -31.7154 -31.7154
   -13.1037 -13.1037 -13.0474 -13.0474 -12.9481 -12.9481 -12.8867 -12.8867
    -9.3643  -9.3643  -9.2983  -9.2983  -8.8670  -8.8670  -8.8102  -8.8102
    -8.6449  -8.6449  -8.5522  -8.5522  -8.1398  -8.1398  -8.0858  -8.0858
     8.0219   8.0219   8.1743   8.1743  10.7231  10.7231  10.7744  10.7744
    11.0856  11.0856  11.2446  11.2446  11.5107  11.5107  11.6141  11.6141
    12.4654  12.4654  12.6806  12.6806  13.3187  13.3187  13.4465  13.4465

          k =-0.5000-1.4434 0.3132 (  4724 PWs)   bands (ev):

   -32.1232 -32.1232 -32.0528 -32.0528 -31.7596 -31.7596 -31.7160 -31.7160
   -13.1096 -13.1023 -13.0509 -13.0436 -12.9642 -12.9526 -12.8998 -12.8880
    -9.3910  -9.3822  -9.3007  -9.2751  -8.8609  -8.8583  -8.8086  -8.7945
    -8.6706  -8.6475  -8.5704  -8.5401  -8.1337  -8.1111  -8.0508  -8.0300
     8.0108   8.0308   8.1084   8.1319  10.5526  10.5945  10.6617  10.6923
    11.2280  11.2622  11.3812  11.4031  11.6694  11.6971  11.8288  11.8586
    12.4655  12.5050  12.5788  12.5838  12.9256  12.9418  13.0108  13.0203

          k =-0.5000-1.4434-0.6263 (  4696 PWs)   bands (ev):

   -32.1226 -32.1226 -32.0519 -32.0519 -31.7605 -31.7605 -31.7165 -31.7165
   -13.1108 -13.1108 -13.0416 -13.0416 -12.9722 -12.9722 -12.9006 -12.9006
    -9.4073  -9.4073  -9.2755  -9.2755  -8.8628  -8.8628  -8.8128  -8.8128
    -8.6318  -8.6318  -8.5641  -8.5641  -8.1182  -8.1182  -7.9905  -7.9905
     8.0287   8.0287   8.0660   8.0660  10.4380  10.4380  10.5326  10.5326
    11.4282  11.4282  11.7079  11.7079  11.8714  11.8714  12.0119  12.0119
    12.3829  12.3829  12.4905  12.4905  12.6140  12.6140  12.7533  12.7533

          k = 0.0000-0.5774 0.3132 (  4725 PWs)   bands (ev):

   -32.1465 -32.1465 -32.0673 -32.0672 -31.7801 -31.7797 -31.7263 -31.7261
   -13.1163 -13.0795 -13.0633 -13.0279 -12.9474 -12.9131 -12.7913 -12.7781
    -9.3879  -9.3147  -9.2756  -9.2121  -8.8402  -8.8243  -8.6834  -8.6506
    -8.6108  -8.5542  -8.4468  -8.4113  -8.1206  -8.0495  -7.8312  -7.8105
     7.6139   7.6370   8.0757   8.1372   9.7613   9.8791  10.6282  10.6472
    10.7408  10.7875  11.1795  11.3190  11.7111  11.8497  12.2248  12.2895
    12.4368  12.5444  12.6058  12.6260  12.9336  13.0291  13.6655  13.7482

          k =-0.2500-0.1443 0.3132 (  4740 PWs)   bands (ev):

   -32.1694 -32.1694 -32.0821 -32.0821 -31.7992 -31.7990 -31.7373 -31.7370
   -13.1031 -13.0959 -13.0542 -13.0364 -12.8945 -12.8726 -12.6960 -12.6869
    -9.3646  -9.2992  -9.1998  -9.1843  -8.8337  -8.8310  -8.5365  -8.4931
    -8.4694  -8.4318  -8.3252  -8.3066  -8.0029  -7.9589  -7.6550  -7.6462
     7.0673   7.0909   7.8080   7.8294   9.2591   9.3652  10.2876  10.3194
    10.4651  10.5124  10.8253  10.8706  11.8195  11.8605  12.5520  12.5682
    12.8128  12.8496  13.0351  13.0734  13.7097  13.7296  13.7371  13.7528

          k =-0.2500-0.7217 0.3132 (  4734 PWs)   bands (ev):

   -32.1419 -32.1419 -32.0720 -32.0719 -31.7752 -31.7749 -31.7312 -31.7309
   -13.1165 -13.0878 -13.0551 -13.0309 -12.8948 -12.8857 -12.8387 -12.8095
    -9.3576  -9.3280  -9.2823  -9.2312  -8.7804  -8.7754  -8.7513  -8.7295
    -8.5419  -8.5346  -8.4730  -8.4486  -7.9971  -7.9773  -7.9164  -7.8987
     7.7937   7.8244   7.9439   7.9875  10.0494  10.1289  10.3569  10.4856
    10.9482  10.9811  10.9974  11.0308  11.6715  11.7643  12.0171  12.0598
    12.4707  12.5109  12.5709  12.6002  13.2124  13.2682  13.3467  13.4555

          k =-0.2500 1.0104 0.3132 (  4718 PWs)   bands (ev):

   -32.1232 -32.1232 -32.0528 -32.0528 -31.7596 -31.7596 -31.7160 -31.7160
   -13.1142 -13.1068 -13.0447 -13.0332 -12.9793 -12.9653 -12.8980 -12.8885
    -9.4043  -9.3605  -9.3422  -9.2741  -8.9066  -8.8865  -8.8599  -8.8572
    -8.6228  -8.6090  -8.5005  -8.4894  -8.1116  -8.1054  -8.0115  -8.0056
     7.9291   7.9604   8.0263   8.0571  10.4119  10.4304  10.5067  10.5336
    10.7582  10.7737  10.8126  10.8208  11.5906  11.6137  11.6743  11.6954
    12.6003  12.6432  12.9249  12.9646  13.3725  13.4203  13.5831  13.5995

          k =-0.2500 0.4330 0.3132 (  4739 PWs)   bands (ev):

   -32.1509 -32.1508 -32.0630 -32.0630 -31.7839 -31.7835 -31.7222 -31.7220
   -13.1173 -13.0850 -13.0637 -13.0221 -12.9825 -12.9438 -12.7616 -12.7403
    -9.4060  -9.3062  -9.2623  -9.2142  -8.8690  -8.8342  -8.7065  -8.6365
    -8.5864  -8.5492  -8.4244  -8.3781  -8.1780  -8.0902  -7.7991  -7.7800
     7.3794   7.4266   8.1414   8.2175   9.7993   9.9743  10.6640  10.6818
    10.9708  10.9986  11.4096  11.4703  11.4887  11.6055  12.1653  12.2100
    12.4311  12.4559  12.5221  12.6825  12.9444  13.0884  13.6856  13.7655

          k = 0.5000-0.2887 0.3132 (  4725 PWs)   bands (ev):

   -32.1466 -32.1466 -32.0672 -32.0672 -31.7800 -31.7796 -31.7264 -31.7261
   -13.1144 -13.0865 -13.0503 -13.0267 -12.9521 -12.9255 -12.7984 -12.7634
    -9.3836  -9.3073  -9.2655  -9.2268  -8.8406  -8.8312  -8.6850  -8.6662
    -8.6030  -8.5642  -8.4603  -8.3846  -8.1097  -8.0357  -7.8455  -7.8151
     7.5467   7.5929   8.0801   8.1623   9.8791  10.0468  10.5434  10.6173
    10.8692  10.9622  11.2386  11.3846  11.7428  11.8701  11.9209  11.9610
    12.4861  12.5572  12.6357  12.6639  12.9625  13.0517  13.5737  13.6557

     the Fermi energy is    11.8394 ev

!    total energy              =   -2239.93867740 Ry
     Harris-Foulkes estimate   =   -2239.93867748 Ry
     estimated scf accuracy    <       0.00000011 Ry

     total all-electron energy =    -90244.282080 Ry

     The total energy is the sum of the following terms:

     one-electron contribution =     -39.07698498 Ry
     hartree contribution      =      41.58342458 Ry
     xc contribution           =    -253.73072675 Ry
     ewald contribution        =    -240.62019859 Ry
     one-center paw contrib.   =   -1748.08979443 Ry
     smearing contrib. (-TS)   =      -0.00439723 Ry

     convergence has been achieved in  11 iterations

     Writing output data file 2331.save
 
     init_run     :      2.03s CPU      2.48s WALL (       1 calls)
     electrons    :     44.53s CPU     47.38s WALL (       1 calls)

     Called by init_run:
     wfcinit      :      1.77s CPU      1.97s WALL (       1 calls)
     potinit      :      0.11s CPU      0.15s WALL (       1 calls)

     Called by electrons:
     c_bands      :     36.99s CPU     38.93s WALL (      11 calls)
     sum_band     :      5.54s CPU      5.87s WALL (      11 calls)
     v_of_rho     :      0.03s CPU      0.03s WALL (      12 calls)
     newd         :      0.80s CPU      0.84s WALL (      12 calls)
     PAW_pot      :      1.25s CPU      1.31s WALL (      12 calls)
     mix_rho      :      0.07s CPU      0.08s WALL (      11 calls)

     Called by c_bands:
     init_us_2    :      0.20s CPU      0.21s WALL (     828 calls)
     cegterg      :     34.95s CPU     36.79s WALL (     396 calls)

     Called by sum_band:
     sum_band:bec :      1.89s CPU      1.90s WALL (     396 calls)
     addusdens    :      0.24s CPU      0.27s WALL (      11 calls)

     Called by *egterg:
     h_psi        :     18.98s CPU     20.56s WALL (    1768 calls)
     s_psi        :      1.89s CPU      1.91s WALL (    1768 calls)
     g_psi        :      0.04s CPU      0.04s WALL (    1336 calls)
     cdiaghg      :     10.00s CPU     10.19s WALL (    1732 calls)

     Called by h_psi:
     h_psi:pot    :     18.70s CPU     20.28s WALL (    1768 calls)
     h_psi:calbec :      1.32s CPU      1.55s WALL (    1768 calls)
     vloc_psi     :     15.26s CPU     16.58s WALL (    1768 calls)
     add_vuspsi   :      2.10s CPU      2.14s WALL (    1768 calls)

     General routines
     calbec       :      1.64s CPU      1.92s WALL (    2164 calls)
     fft          :      0.03s CPU      0.10s WALL (     224 calls)
     fftw         :     16.18s CPU     17.57s WALL (  286124 calls)
     davcio       :      0.00s CPU      0.00s WALL (      36 calls)
 
     Parallel routines
     fft_scatter  :     10.27s CPU     11.17s WALL (  286348 calls)
 
     PWSCF        :  0m47.36s CPU     2m 2.85s WALL

 
   This run was terminated on:  10:59:12  16Nov2022            

=------------------------------------------------------------------------------=
   JOB DONE.
=------------------------------------------------------------------------------=
Removing 2331 from /home/shaharpit/tmp
