
     Program PWSCF v.6.1 (svn rev. 13369) starts on 16Nov2022 at 10:59:11 

     This program is part of the open-source Quantum ESPRESSO suite
     for quantum simulation of materials; please cite
         "P. Giannozzi et al., J. Phys.:Condens. Matter 21 395502 (2009);
          URL http://www.quantum-espresso.org", 
     in publications or presentations arising from this work. More details at
     http://www.quantum-espresso.org/quote

     Parallel version (MPI), running on    32 processors
     R & G space division:  proc/nbgrp/npool/nimage =      32
     Reading input from ./hcp_50_0.9.in
Warning: card &IONS ignored
Warning: card 	ION_DYNAMICS='BFGS', ignored
Warning: card / ignored
Warning: card &CELL ignored
Warning: card / ignored

     Current dimensions of program PWSCF are:
     Max number of different atomic species (ntypx) = 10
     Max number of k-points (npk) =  40000
     Max angular momentum in pseudopotentials (lmaxx) =  3
               file Gd.rel-pbe-spdn-kjpaw_psl.1.0.0.UPF: wavefunction(s)  5P 5P renormalized
               file H.pbe-kjpaw_psl.0.1.UPF: wavefunction(s)  1S renormalized

     Subspace diagonalization in iterative solution of the eigenvalue problem:
     a serial algorithm will be used

 
     Parallelization info
     --------------------
     sticks:   dense  smooth     PW     G-vecs:    dense   smooth      PW
     Min          37      37     11                 1177     1177     201
     Max          38      38     12                 1182     1182     206
     Sum        1195    1195    373                37769    37769    6507
 


     bravais-lattice index     =            0
     lattice parameter (alat)  =      13.1873  a.u.
     unit-cell volume          =     792.7371 (a.u.)^3
     number of atoms/cell      =            8
     number of atomic types    =            2
     number of electrons       =        48.00
     number of Kohn-Sham states=           58
     kinetic-energy cutoff     =      50.0000  Ry
     charge density cutoff     =     200.0000  Ry
     convergence threshold     =      1.0E-06
     mixing beta               =       0.7000
     number of iterations used =            8  plain     mixing
     Exchange-correlation      =  SLA  PW   PBX  PBC ( 1  4  3  4 0 0)
     Non magnetic calculation with spin-orbit


     celldm(1)=  13.187265  celldm(2)=   0.000000  celldm(3)=   0.000000
     celldm(4)=   0.000000  celldm(5)=   0.000000  celldm(6)=   0.000000

     crystal axes: (cart. coord. in units of alat)
               a(1) = (   1.000000   0.000000   0.000000 )  
               a(2) = (  -0.250000   0.433008   0.000000 )  
               a(3) = (   0.000000   0.000000   0.798306 )  

     reciprocal axes: (cart. coord. in units 2 pi/alat)
               b(1) = (  1.000000  0.577357  0.000000 )  
               b(2) = (  0.000000  2.309428  0.000000 )  
               b(3) = (  0.000000  0.000000  1.252652 )  


     PseudoPot. # 1 for Gd read from file:
     /home/shaharpit/MeamGdH/dft/qe_potentials/Gd.rel-pbe-spdn-kjpaw_psl.1.0.0.UPF
     MD5 check sum: cf50ec46d1536b4a0251694df1946a53
     Pseudo is Projector augmented-wave + core cor, Zval = 11.0
     Generated using "atomic" code by A. Dal Corso  v.6.2.2
     Shape of augmentation charge: PSQ
     Using radial grid of 1263 points, 10 beta functions with: 
                l(1) =   0
                l(2) =   0
                l(3) =   1
                l(4) =   1
                l(5) =   1
                l(6) =   1
                l(7) =   2
                l(8) =   2
                l(9) =   2
               l(10) =   2
     Q(r) pseudized with 0 coefficients 


     PseudoPot. # 2 for  H read from file:
     /home/shaharpit/MeamGdH/dft/qe_potentials/H.pbe-kjpaw_psl.0.1.UPF
     MD5 check sum: fbb168fef676c0aaadbafd73f5b1efa8
     Pseudo is Projector augmented-wave, Zval =  1.0
     Generated using "atomic" code by A. Dal Corso  v.5.0.2 svn rev. 9415
     Shape of augmentation charge: PSQ
     Using radial grid of  929 points,  2 beta functions with: 
                l(1) =   0
                l(2) =   0
     Q(r) pseudized with 0 coefficients 


     atomic species   valence    mass     pseudopotential
        Gd            11.00   157.25000     Gd( 1.00)
        H              1.00     1.00794      H( 1.00)

     No symmetry found



   Cartesian axes

     site n.     atom                  positions (alat units)
         1           Gd  tau(   1) = (   0.2499750   0.1443214   0.5987297  )
         2           Gd  tau(   2) = (   0.7499750   0.1443214   0.5987297  )
         3           Gd  tau(   3) = (   0.0000250   0.2886861   0.1995766  )
         4           Gd  tau(   4) = (   0.5000250   0.2886861   0.1995766  )
         5           H   tau(   5) = (   0.2603500   0.1351850   0.7733990  )
         6           H   tau(   6) = (   0.7141750   0.1153965   0.7679706  )
         7           H   tau(   7) = (   0.7241000   0.3952493   0.4070563  )
         8           H   tau(   8) = (   0.2676250   0.4208401   0.3987539  )

     number of k points=    36  gaussian smearing, width (Ry)=  0.0100
                       cart. coord. in units 2pi/alat
        k(    1) = (   0.0000000   0.0000000   0.0000000), wk =   0.0156250
        k(    2) = (   0.0000000   0.0000000   0.3131630), wk =   0.0312500
        k(    3) = (   0.0000000   0.0000000  -0.6263261), wk =   0.0156250
        k(    4) = (   0.0000000   0.5773571   0.0000000), wk =   0.0312500
        k(    5) = (   0.0000000   0.5773571   0.3131630), wk =   0.0312500
        k(    6) = (   0.0000000   0.5773571  -0.6263261), wk =   0.0312500
        k(    7) = (   0.0000000  -1.1547142   0.0000000), wk =   0.0156250
        k(    8) = (   0.0000000  -1.1547142   0.3131630), wk =   0.0312500
        k(    9) = (   0.0000000  -1.1547142  -0.6263261), wk =   0.0156250
        k(   10) = (   0.2500000   0.1443393   0.0000000), wk =   0.0312500
        k(   11) = (   0.2500000   0.1443393   0.3131630), wk =   0.0312500
        k(   12) = (   0.2500000   0.1443393  -0.6263261), wk =   0.0312500
        k(   13) = (   0.2500000   0.7216964   0.0000000), wk =   0.0312500
        k(   14) = (   0.2500000   0.7216964   0.3131630), wk =   0.0312500
        k(   15) = (   0.2500000   0.7216964  -0.6263261), wk =   0.0312500
        k(   16) = (   0.2500000  -1.0103750   0.0000000), wk =   0.0312500
        k(   17) = (   0.2500000  -1.0103750   0.3131630), wk =   0.0312500
        k(   18) = (   0.2500000  -1.0103750  -0.6263261), wk =   0.0312500
        k(   19) = (   0.2500000  -0.4330178   0.0000000), wk =   0.0312500
        k(   20) = (   0.2500000  -0.4330178   0.3131630), wk =   0.0312500
        k(   21) = (   0.2500000  -0.4330178  -0.6263261), wk =   0.0312500
        k(   22) = (  -0.5000000  -0.2886786   0.0000000), wk =   0.0156250
        k(   23) = (  -0.5000000  -0.2886786   0.3131630), wk =   0.0312500
        k(   24) = (  -0.5000000  -0.2886786  -0.6263261), wk =   0.0156250
        k(   25) = (  -0.5000000   0.2886786   0.0000000), wk =   0.0312500
        k(   26) = (  -0.5000000   0.2886786   0.3131630), wk =   0.0312500
        k(   27) = (  -0.5000000   0.2886786  -0.6263261), wk =   0.0312500
        k(   28) = (  -0.5000000  -1.4433928   0.0000000), wk =   0.0156250
        k(   29) = (  -0.5000000  -1.4433928   0.3131630), wk =   0.0312500
        k(   30) = (  -0.5000000  -1.4433928  -0.6263261), wk =   0.0156250
        k(   31) = (   0.0000000  -0.5773571   0.3131630), wk =   0.0312500
        k(   32) = (  -0.2500000  -0.1443393   0.3131630), wk =   0.0312500
        k(   33) = (  -0.2500000  -0.7216964   0.3131630), wk =   0.0312500
        k(   34) = (  -0.2500000   1.0103750   0.3131630), wk =   0.0312500
        k(   35) = (  -0.2500000   0.4330178   0.3131630), wk =   0.0312500
        k(   36) = (   0.5000000  -0.2886786   0.3131630), wk =   0.0312500

     Dense  grid:    37769 G-vectors     FFT dimensions: (  60,  30,  48)

     Estimated max dynamical RAM per process >      16.16MB

     Estimated total allocated dynamical RAM >     517.14MB

     Initial potential from superposition of free atoms

     starting charge   47.92377, renormalised to   48.00000
     Starting wfc are  112 randomized atomic wfcs
     Checking if some PAW data can be deallocated... 

     total cpu time spent up to now is        6.6 secs

     per-process dynamical memory:    64.7 Mb

     Self-consistent Calculation

     iteration #  1     ecut=    50.00 Ry     beta=0.70
     Davidson diagonalization with overlap
     ethr =  1.00E-02,  avg # of iterations =  2.0

     total cpu time spent up to now is       10.9 secs

     total energy              =   -2242.12622188 Ry
     Harris-Foulkes estimate   =   -2242.57181429 Ry
     estimated scf accuracy    <       0.65696584 Ry

     iteration #  2     ecut=    50.00 Ry     beta=0.70
     Davidson diagonalization with overlap
     ethr =  1.37E-03,  avg # of iterations =  4.3

     total cpu time spent up to now is       16.5 secs

     total energy              =   -2241.85038148 Ry
     Harris-Foulkes estimate   =   -2242.74694874 Ry
     estimated scf accuracy    <       2.55764823 Ry

     iteration #  3     ecut=    50.00 Ry     beta=0.70
     Davidson diagonalization with overlap
     ethr =  1.37E-03,  avg # of iterations =  4.1

     total cpu time spent up to now is       21.5 secs

     total energy              =   -2242.32014049 Ry
     Harris-Foulkes estimate   =   -2242.42554608 Ry
     estimated scf accuracy    <       0.35873683 Ry

     iteration #  4     ecut=    50.00 Ry     beta=0.70
     Davidson diagonalization with overlap
     ethr =  7.47E-04,  avg # of iterations =  2.9

     total cpu time spent up to now is       25.4 secs

     total energy              =   -2242.35176413 Ry
     Harris-Foulkes estimate   =   -2242.38778745 Ry
     estimated scf accuracy    <       0.11977565 Ry

     iteration #  5     ecut=    50.00 Ry     beta=0.70
     Davidson diagonalization with overlap
     ethr =  2.50E-04,  avg # of iterations =  2.5

     total cpu time spent up to now is       29.2 secs

     total energy              =   -2242.36924207 Ry
     Harris-Foulkes estimate   =   -2242.37279902 Ry
     estimated scf accuracy    <       0.01129426 Ry

     iteration #  6     ecut=    50.00 Ry     beta=0.70
     Davidson diagonalization with overlap
     ethr =  2.35E-05,  avg # of iterations =  4.9

     total cpu time spent up to now is       34.2 secs

     total energy              =   -2242.37102808 Ry
     Harris-Foulkes estimate   =   -2242.37147412 Ry
     estimated scf accuracy    <       0.00116317 Ry

     iteration #  7     ecut=    50.00 Ry     beta=0.70
     Davidson diagonalization with overlap
     c_bands:  1 eigenvalues not converged
     ethr =  2.42E-06,  avg # of iterations =  5.5

     total cpu time spent up to now is       39.5 secs

     total energy              =   -2242.37126163 Ry
     Harris-Foulkes estimate   =   -2242.37129358 Ry
     estimated scf accuracy    <       0.00009115 Ry

     iteration #  8     ecut=    50.00 Ry     beta=0.70
     Davidson diagonalization with overlap
     ethr =  1.90E-07,  avg # of iterations =  3.0

     total cpu time spent up to now is       43.7 secs

     total energy              =   -2242.37127089 Ry
     Harris-Foulkes estimate   =   -2242.37128918 Ry
     estimated scf accuracy    <       0.00004025 Ry

     iteration #  9     ecut=    50.00 Ry     beta=0.70
     Davidson diagonalization with overlap
     ethr =  8.39E-08,  avg # of iterations =  2.9

     total cpu time spent up to now is       47.8 secs

     total energy              =   -2242.37127881 Ry
     Harris-Foulkes estimate   =   -2242.37128410 Ry
     estimated scf accuracy    <       0.00001435 Ry

     iteration # 10     ecut=    50.00 Ry     beta=0.70
     Davidson diagonalization with overlap
     ethr =  2.99E-08,  avg # of iterations =  2.8

     total cpu time spent up to now is       51.7 secs

     End of self-consistent calculation

          k = 0.0000 0.0000 0.0000 (  4677 PWs)   bands (ev):

   -31.8763 -31.8763 -31.6134 -31.6134 -31.5576 -31.5576 -31.3891 -31.3891
   -12.9053 -12.9053 -12.7357 -12.7357 -12.6059 -12.6059 -12.2076 -12.2076
    -9.1226  -9.1226  -8.9486  -8.9486  -8.5887  -8.5887  -8.2114  -8.2114
    -7.9533  -7.9533  -7.8586  -7.8586  -7.7580  -7.7580  -7.2871  -7.2871
     5.1225   5.1225   7.0109   7.0109   8.1805   8.1805   8.7129   8.7129
    10.4336  10.4336  11.0628  11.0628  11.3778  11.3778  12.4119  12.4119
    13.0401  13.0401  13.2686  13.2686  13.6504  13.6504  13.7915  13.7915
    13.9273  13.9273

          k = 0.0000 0.0000 0.3132 (  4762 PWs)   bands (ev):

   -31.8715 -31.8715 -31.6061 -31.6061 -31.5656 -31.5656 -31.3938 -31.3938
   -12.8815 -12.8583 -12.7168 -12.7113 -12.6224 -12.6032 -12.2629 -12.2591
    -9.1324  -9.0978  -8.8853  -8.8817  -8.5925  -8.5766  -8.2680  -8.1874
    -8.0574  -8.0072  -7.8518  -7.8489  -7.8030  -7.7164  -7.2971  -7.2961
     5.5722   5.5770   6.7094   6.7366   8.4129   8.4577   8.8398   8.8747
    10.0434  10.0523  10.4937  10.5000  11.4710  11.5319  12.4748  12.4865
    12.6386  12.6643  13.4605  13.4658  13.6075  13.6349  13.6839  13.7226
    14.0723  14.1220

          k = 0.0000 0.0000-0.6263 (  4752 PWs)   bands (ev):

   -31.8665 -31.8665 -31.5924 -31.5924 -31.5801 -31.5801 -31.3985 -31.3985
   -12.8441 -12.8441 -12.6677 -12.6677 -12.6175 -12.6175 -12.3315 -12.3315
    -9.1122  -9.1122  -8.7859  -8.7859  -8.5849  -8.5849  -8.2764  -8.2764
    -8.1211  -8.1211  -7.8420  -7.8420  -7.7422  -7.7422  -7.3060  -7.3060
     6.2510   6.2510   6.5378   6.5378   8.0960   8.0960   9.1911   9.1911
     9.6194   9.6194  10.1017  10.1017  11.7672  11.7672  12.3513  12.3513
    12.5904  12.5904  13.3873  13.3873  13.5469  13.5469  13.9198  13.9198
    14.0515  14.0515

          k = 0.0000 0.5774 0.0000 (  4740 PWs)   bands (ev):

   -31.8506 -31.8506 -31.5957 -31.5955 -31.5415 -31.5413 -31.3802 -31.3799
   -12.9075 -12.8727 -12.7513 -12.7269 -12.6107 -12.6048 -12.3540 -12.3255
    -9.1532  -9.1108  -9.0148  -8.9474  -8.5198  -8.5163  -8.3709  -8.3397
    -8.1827  -8.1232  -8.0256  -8.0101  -7.8747  -7.8389  -7.5660  -7.5543
     6.1578   6.2575   6.9718   7.0198   8.3709   8.4525   8.6923   8.8600
    10.7549  10.7766  11.1561  11.2018  11.5505  11.7176  11.9161  11.9564
    12.7326  12.7798  13.1247  13.1756  13.2162  13.2902  13.7193  13.8091
    13.8852  13.9094

          k = 0.0000 0.5774 0.3132 (  4725 PWs)   bands (ev):

   -31.8482 -31.8482 -31.5887 -31.5885 -31.5482 -31.5479 -31.3832 -31.3830
   -12.8889 -12.8583 -12.7375 -12.7097 -12.6313 -12.6157 -12.3801 -12.3559
    -9.1545  -9.0870  -8.9832  -8.9216  -8.5231  -8.5036  -8.4002  -8.3740
    -8.1991  -8.1506  -8.0631  -8.0004  -7.8694  -7.7720  -7.5722  -7.5374
     6.4174   6.4904   6.9127   6.9755   8.2997   8.3771   8.7158   8.8441
    10.6434  10.6859  11.0716  11.1018  11.7613  11.8626  11.9463  11.9894
    12.5644  12.6083  12.6382  12.7056  13.0276  13.1165  13.7686  13.8090
    13.8975  13.9335

          k = 0.0000 0.5774-0.6263 (  4722 PWs)   bands (ev):

   -31.8456 -31.8456 -31.5774 -31.5774 -31.5591 -31.5588 -31.3864 -31.3861
   -12.8702 -12.8352 -12.7124 -12.6861 -12.6475 -12.6381 -12.4122 -12.3984
    -9.1660  -9.0577  -8.9373  -8.8843  -8.5388  -8.5136  -8.4300  -8.3885
    -8.2216  -8.1841  -8.0484  -8.0313  -7.8728  -7.7295  -7.5421  -7.5299
     6.5804   6.6149   6.8658   6.9380   8.3450   8.4053   8.7753   8.8861
    10.4936  10.5639  11.1796  11.2319  11.7628  11.8060  11.9693  11.9766
    12.5778  12.6741  12.7453  12.8061  12.8468  12.8962  13.1693  13.1866
    14.2176  14.2809

          k = 0.0000-1.1547 0.0000 (  4688 PWs)   bands (ev):

   -31.8277 -31.8277 -31.5752 -31.5752 -31.5254 -31.5254 -31.3698 -31.3698
   -12.8633 -12.8633 -12.7562 -12.7562 -12.6512 -12.6512 -12.4637 -12.4637
    -9.1694  -9.1694  -9.0134  -9.0134  -8.6498  -8.6498  -8.5432  -8.5432
    -8.1955  -8.1955  -8.0965  -8.0965  -7.8577  -7.8577  -7.7188  -7.7188
     6.8900   6.8900   7.0577   7.0577   8.2515   8.2515   8.5895   8.5895
    10.5439  10.5439  10.6568  10.6568  11.0303  11.0303  11.2568  11.2568
    12.9532  12.9532  13.1337  13.1337  13.3885  13.3885  13.4446  13.4446
    13.7039  13.7039

          k = 0.0000-1.1547 0.3132 (  4724 PWs)   bands (ev):

   -31.8273 -31.8273 -31.5693 -31.5693 -31.5314 -31.5314 -31.3702 -31.3702
   -12.8767 -12.8725 -12.7599 -12.7251 -12.6918 -12.6544 -12.4685 -12.4634
    -9.1815  -9.1687  -9.0291  -9.0046  -8.6446  -8.6391  -8.5432  -8.5402
    -8.2278  -8.2008  -8.0803  -8.0464  -7.8759  -7.8127  -7.7245  -7.6599
     6.7630   6.7923   6.8274   6.8579   8.3889   8.5117   8.6093   8.7233
    10.4006  10.4174  10.4627  10.4821  11.4421  11.4782  11.5065  11.5253
    12.6829  12.7087  12.8975  12.9035  13.5636  13.6213  13.6663  13.7362
    13.9832  14.0242

          k = 0.0000-1.1547-0.6263 (  4728 PWs)   bands (ev):

   -31.8268 -31.8268 -31.5603 -31.5603 -31.5403 -31.5403 -31.3707 -31.3707
   -12.8841 -12.8841 -12.7394 -12.7394 -12.6850 -12.6850 -12.4692 -12.4692
    -9.1778  -9.1778  -9.0255  -9.0255  -8.6374  -8.6374  -8.5382  -8.5382
    -8.1902  -8.1902  -8.0879  -8.0879  -7.8086  -7.8086  -7.6694  -7.6694
     6.6347   6.6347   6.7944   6.7944   8.2738   8.2738   8.8523   8.8523
    10.2831  10.2831  10.6042  10.6042  11.7678  11.7678  11.8766  11.8766
    12.3963  12.3963  12.5459  12.5459  14.1025  14.1025  14.1553  14.1553
    14.6243  14.6243

          k = 0.2500 0.1443 0.0000 (  4728 PWs)   bands (ev):

   -31.8731 -31.8731 -31.6158 -31.6157 -31.5571 -31.5571 -31.3908 -31.3907
   -12.9059 -12.9048 -12.7473 -12.7421 -12.5615 -12.5530 -12.2410 -12.2372
    -9.1335  -9.1026  -8.9645  -8.9521  -8.5204  -8.4850  -8.1986  -8.1846
    -8.0075  -7.9938  -7.9153  -7.9101  -7.7267  -7.7161  -7.3723  -7.3664
     5.4092   5.4638   6.8065   6.8777   8.2280   8.2580   8.7945   8.9252
    10.4638  10.5338  10.8933  10.9440  11.4956  11.6059  12.3800  12.4586
    12.9749  12.9809  13.3784  13.4011  13.4986  13.5630  13.6954  13.7378
    14.1633  14.1984

          k = 0.2500 0.1443 0.3132 (  4740 PWs)   bands (ev):

   -31.8688 -31.8688 -31.6076 -31.6075 -31.5648 -31.5647 -31.3963 -31.3962
   -12.8814 -12.8551 -12.7139 -12.7075 -12.5965 -12.5749 -12.2861 -12.2835
    -9.0942  -9.0860  -8.9173  -8.8894  -8.5401  -8.4941  -8.2563  -8.1852
    -8.0977  -8.0425  -7.9177  -7.9031  -7.7386  -7.6678  -7.3824  -7.3754
     5.7598   5.8086   6.8816   6.9292   8.2029   8.2309   8.7913   8.8764
    10.2526  10.2837  10.4917  10.5443  11.6997  11.7711  12.2772  12.3054
    12.7838  12.8095  13.1037  13.1068  13.5335  13.6078  13.7929  13.8588
    13.9276  13.9395

          k = 0.2500 0.1443-0.6263 (  4760 PWs)   bands (ev):

   -31.8643 -31.8643 -31.5944 -31.5944 -31.5775 -31.5774 -31.4019 -31.4018
   -12.8381 -12.8262 -12.6677 -12.6615 -12.6144 -12.6039 -12.3497 -12.3441
    -9.0889  -9.0576  -8.8334  -8.8082  -8.5386  -8.5181  -8.2725  -8.2696
    -8.1529  -8.1219  -7.9084  -7.9018  -7.7030  -7.6938  -7.3779  -7.3757
     6.3525   6.3946   6.5349   6.5834   8.2040   8.2248   9.0526   9.0817
     9.8316   9.8720  10.4403  10.4864  11.8319  11.8361  12.2513  12.2948
    12.4459  12.4787  13.3503  13.3677  13.4880  13.4960  13.5907  13.6224
    13.7939  13.8035

          k = 0.2500 0.7217 0.0000 (  4726 PWs)   bands (ev):

   -31.8489 -31.8489 -31.5968 -31.5966 -31.5414 -31.5412 -31.3810 -31.3808
   -12.9078 -12.8736 -12.7590 -12.7287 -12.5807 -12.5740 -12.3789 -12.3521
    -9.1623  -9.1136  -9.0179  -8.9536  -8.4693  -8.4548  -8.4155  -8.3831
    -8.1477  -8.1073  -8.0890  -8.0230  -7.7894  -7.7673  -7.6406  -7.6171
     6.5690   6.6269   6.7315   6.7857   8.2809   8.3517   8.6574   8.7954
    10.8209  10.8710  11.0713  11.0993  11.4435  11.5083  11.7069  11.7898
    12.8409  12.9350  13.1146  13.1394  13.2880  13.3406  13.4668  13.5335
    13.6392  13.6921

          k = 0.2500 0.7217 0.3132 (  4734 PWs)   bands (ev):

   -31.8468 -31.8467 -31.5895 -31.5894 -31.5477 -31.5475 -31.3844 -31.3842
   -12.8898 -12.8593 -12.7410 -12.7094 -12.6098 -12.5960 -12.3971 -12.3775
    -9.1402  -9.0993  -8.9948  -8.9319  -8.4698  -8.4612  -8.4351  -8.4117
    -8.1564  -8.1341  -8.0776  -8.0582  -7.7820  -7.7334  -7.6386  -7.5842
     6.5326   6.6109   6.7670   6.8416   8.2467   8.3135   8.8164   8.9707
    10.8214  10.8738  11.1118  11.1429  11.5522  11.6411  11.8879  11.9631
    12.4815  12.5351  12.6185  12.6888  13.3484  13.3916  13.4365  13.4978
    13.8098  13.8503

          k = 0.2500 0.7217-0.6263 (  4756 PWs)   bands (ev):

   -31.8445 -31.8445 -31.5785 -31.5785 -31.5575 -31.5573 -31.3882 -31.3879
   -12.8636 -12.8324 -12.7143 -12.6868 -12.6407 -12.6346 -12.4226 -12.4085
    -9.1204  -9.0707  -8.9710  -8.9023  -8.5150  -8.4703  -8.4616  -8.4142
    -8.1781  -8.1352  -8.1096  -8.0654  -7.7603  -7.7069  -7.6309  -7.5592
     6.6478   6.6868   6.7463   6.7864   8.3511   8.4099   8.8085   8.9056
    10.7707  10.8261  11.1217  11.1904  11.9498  12.0056  12.0870  12.1113
    12.2165  12.2582  12.5334  12.5667  12.8681  12.9213  12.9457  12.9887
    14.3039  14.4149

          k = 0.2500-1.0104 0.0000 (  4738 PWs)   bands (ev):

   -31.8278 -31.8278 -31.5755 -31.5755 -31.5253 -31.5253 -31.3698 -31.3698
   -12.8646 -12.8635 -12.7581 -12.7549 -12.6468 -12.6439 -12.4593 -12.4585
    -9.1606  -9.1571  -9.0095  -9.0030  -8.6344  -8.6188  -8.5050  -8.4792
    -8.2572  -8.2369  -8.1191  -8.1112  -7.8972  -7.8744  -7.7585  -7.7490
     6.9337   6.9550   7.0685   7.0865   8.2736   8.3344   8.5237   8.5851
    10.8454  10.8571  10.9218  10.9299  11.2326  11.3418  11.4233  11.5291
    12.7909  12.8137  12.9723  12.9947  13.3088  13.3415  13.4745  13.4973
    13.7435  13.7906

          k = 0.2500-1.0104 0.3132 (  4718 PWs)   bands (ev):

   -31.8273 -31.8273 -31.5695 -31.5695 -31.5312 -31.5312 -31.3702 -31.3702
   -12.8751 -12.8712 -12.7594 -12.7319 -12.6806 -12.6495 -12.4648 -12.4593
    -9.1729  -9.1675  -9.0105  -8.9987  -8.6253  -8.6167  -8.4946  -8.4911
    -8.2667  -8.2369  -8.1333  -8.0808  -7.9075  -7.8093  -7.7698  -7.6815
     6.7929   6.8119   6.8641   6.8708   8.5326   8.5934   8.6834   8.7480
    10.6822  10.7388  10.7789  10.8307  11.6519  11.6731  11.7518  11.7686
    12.4283  12.4552  12.6369  12.6619  13.3821  13.4147  13.4931  13.5208
    13.9772  13.9844

          k = 0.2500-1.0104-0.6263 (  4708 PWs)   bands (ev):

   -31.8268 -31.8268 -31.5603 -31.5603 -31.5403 -31.5403 -31.3707 -31.3707
   -12.8820 -12.8816 -12.7351 -12.7314 -12.6880 -12.6830 -12.4667 -12.4659
    -9.1836  -9.1623  -9.0230  -8.9914  -8.6224  -8.6162  -8.5090  -8.4935
    -8.2475  -8.2258  -8.1187  -8.1144  -7.8686  -7.8342  -7.6840  -7.6642
     6.7574   6.7838   6.8975   6.9312   8.3072   8.3385   8.7383   8.7795
    10.5767  10.6395  10.8428  10.9265  11.9285  11.9567  11.9967  12.0208
    12.3574  12.3889  12.4706  12.4984  13.3316  13.3386  13.3954  13.4223
    14.4348  14.5109

          k = 0.2500-0.4330 0.0000 (  4737 PWs)   bands (ev):

   -31.8523 -31.8522 -31.5947 -31.5945 -31.5415 -31.5413 -31.3793 -31.3791
   -12.9066 -12.8713 -12.7420 -12.7216 -12.6404 -12.6349 -12.3310 -12.3041
    -9.1466  -9.1042  -9.0130  -8.9413  -8.5555  -8.5209  -8.3844  -8.3436
    -8.1767  -8.0898  -8.0325  -8.0027  -7.9159  -7.8797  -7.5279  -7.5110
     5.9599   6.0505   7.0476   7.0547   8.4356   8.5358   8.7298   8.9151
    10.6942  10.7786  11.2828  11.3034  11.6192  11.8550  12.2140  12.2808
    12.7390  12.8360  12.8980  12.9462  13.2255  13.2638  13.7311  13.7525
    13.9127  14.0636

          k = 0.2500-0.4330 0.3132 (  4739 PWs)   bands (ev):

   -31.8495 -31.8494 -31.5880 -31.5879 -31.5486 -31.5483 -31.3821 -31.3819
   -12.8848 -12.8497 -12.7415 -12.7085 -12.6456 -12.6331 -12.3669 -12.3438
    -9.1665  -9.0788  -8.9738  -8.9038  -8.5471  -8.5103  -8.4284  -8.3600
    -8.2023  -8.1400  -8.0461  -8.0035  -7.9375  -7.8091  -7.5184  -7.4904
     6.2354   6.3130   7.0241   7.0406   8.4342   8.5271   8.7083   8.8379
    10.5584  10.5827  11.1066  11.1716  11.6689  11.7612  12.2912  12.3167
    12.5492  12.6204  12.6443  12.7241  13.0474  13.2172  13.7245  13.8284
    14.0026  14.0297

          k = 0.2500-0.4330-0.6263 (  4718 PWs)   bands (ev):

   -31.8468 -31.8467 -31.5763 -31.5763 -31.5606 -31.5603 -31.3847 -31.3844
   -12.8757 -12.8392 -12.7106 -12.6880 -12.6477 -12.6454 -12.4026 -12.3883
    -9.1933  -9.0536  -8.9133  -8.8662  -8.5546  -8.5411  -8.4183  -8.3800
    -8.2353  -8.1902  -8.0325  -8.0100  -7.9405  -7.7514  -7.5095  -7.4912
     6.5315   6.5734   7.0200   7.0582   8.3542   8.4170   8.6785   8.7870
    10.3697  10.4401  11.0300  11.0709  11.8573  11.8945  11.9661  12.0328
    12.4883  12.6818  12.8258  12.8619  13.0074  13.1348  13.1910  13.2087
    14.0755  14.1295

          k =-0.5000-0.2887 0.0000 (  4734 PWs)   bands (ev):

   -31.8698 -31.8698 -31.6184 -31.6184 -31.5564 -31.5564 -31.3924 -31.3924
   -12.9053 -12.9053 -12.7500 -12.7500 -12.5016 -12.5016 -12.2812 -12.2812
    -9.1136  -9.1136  -8.9676  -8.9676  -8.3611  -8.3611  -8.1824  -8.1824
    -8.1192  -8.1192  -7.9435  -7.9435  -7.6441  -7.6441  -7.4891  -7.4891
     6.0457   6.0457   6.3379   6.3379   8.4053   8.4053   8.9260   8.9260
    10.5850  10.5850  10.8804  10.8804  11.7866  11.7866  12.2377  12.2377
    13.0120  13.0120  13.2550  13.2550  13.5365  13.5365  13.7627  13.7627
    13.9412  13.9412

          k =-0.5000-0.2887 0.3132 (  4726 PWs)   bands (ev):

   -31.8660 -31.8660 -31.6094 -31.6094 -31.5636 -31.5636 -31.3987 -31.3986
   -12.8765 -12.8598 -12.7157 -12.7115 -12.5448 -12.5373 -12.3238 -12.3134
    -9.0805  -9.0594  -8.9303  -8.9162  -8.4083  -8.3851  -8.2216  -8.2109
    -8.1767  -8.1265  -7.9910  -7.9362  -7.6426  -7.6137  -7.5034  -7.4697
     6.1574   6.2199   6.4966   6.5809   8.2778   8.3470   8.9655   9.0659
    10.4898  10.5240  10.7819  10.7989  11.7766  11.7806  12.2361  12.3199
    12.4592  12.4661  12.7464  12.7951  13.6235  13.6514  13.7571  13.7951
    13.9742  13.9939

          k =-0.5000-0.2887-0.6263 (  4748 PWs)   bands (ev):

   -31.8621 -31.8621 -31.5966 -31.5966 -31.5744 -31.5744 -31.4052 -31.4052
   -12.8197 -12.8197 -12.6656 -12.6656 -12.5948 -12.5948 -12.3645 -12.3645
    -9.0195  -9.0195  -8.8707  -8.8707  -8.4538  -8.4538  -8.2491  -8.2491
    -8.1876  -8.1876  -7.9685  -7.9685  -7.6165  -7.6165  -7.4856  -7.4856
     6.4949   6.4949   6.5860   6.5860   8.3416   8.3416   8.9274   8.9274
    10.3636  10.3636  10.7897  10.7897  11.8347  11.8347  12.0302  12.0302
    12.4814  12.4814  12.9116  12.9117  13.1522  13.1522  13.1951  13.1951
    14.3930  14.4287

          k =-0.5000 0.2887 0.0000 (  4740 PWs)   bands (ev):

   -31.8506 -31.8506 -31.5957 -31.5955 -31.5415 -31.5413 -31.3802 -31.3800
   -12.9069 -12.8723 -12.7530 -12.7246 -12.6147 -12.6044 -12.3515 -12.3261
    -9.1533  -9.1090  -9.0148  -8.9485  -8.5217  -8.5127  -8.3691  -8.3404
    -8.1845  -8.1237  -8.0279  -8.0101  -7.8773  -7.8365  -7.5666  -7.5524
     6.1608   6.2551   6.9783   7.0308   8.3435   8.4360   8.6948   8.8588
    10.7370  10.7807  11.1730  11.2143  11.5746  11.7432  11.8872  11.9578
    12.6648  12.7315  13.1875  13.2622  13.3723  13.4225  13.6398  13.7106
    13.8260  13.8641

          k =-0.5000 0.2887 0.3132 (  4725 PWs)   bands (ev):

   -31.8482 -31.8482 -31.5888 -31.5886 -31.5481 -31.5479 -31.3832 -31.3829
   -12.8891 -12.8582 -12.7443 -12.7087 -12.6298 -12.6120 -12.3750 -12.3607
    -9.1543  -9.0954  -8.9855  -8.9211  -8.5224  -8.5030  -8.3980  -8.3541
    -8.1969  -8.1354  -8.0579  -8.0204  -7.8873  -7.7849  -7.5614  -7.5295
     6.2324   6.3014   6.9636   7.0206   8.3630   8.4411   8.8258   8.9926
    10.7202  10.7398  11.2198  11.2445  11.6866  11.7791  11.8994  11.9712
    12.5875  12.6275  12.6834  12.7534  13.0252  13.1172  13.7115  13.7554
    13.9262  13.9783

          k =-0.5000 0.2887-0.6263 (  4722 PWs)   bands (ev):

   -31.8456 -31.8456 -31.5774 -31.5774 -31.5591 -31.5588 -31.3864 -31.3861
   -12.8696 -12.8363 -12.7118 -12.6854 -12.6478 -12.6396 -12.4123 -12.3977
    -9.1622  -9.0598  -8.9389  -8.8847  -8.5431  -8.5137  -8.4286  -8.3834
    -8.2180  -8.1815  -8.0534  -8.0335  -7.8728  -7.7289  -7.5435  -7.5299
     6.5439   6.6036   6.9172   6.9715   8.3572   8.4165   8.7174   8.8174
    10.4868  10.5632  11.2293  11.2794  11.7879  11.8356  11.9645  11.9831
    12.6046  12.6874  12.7549  12.7975  12.8337  12.9217  13.1664  13.1746
    14.1945  14.2350

          k =-0.5000-1.4434 0.0000 (  4746 PWs)   bands (ev):

   -31.8278 -31.8278 -31.5757 -31.5757 -31.5251 -31.5251 -31.3697 -31.3697
   -12.8648 -12.8648 -12.7567 -12.7567 -12.6395 -12.6395 -12.4541 -12.4541
    -9.1476  -9.1476  -8.9991  -8.9991  -8.6013  -8.6013  -8.3928  -8.3928
    -8.3451  -8.3451  -8.1362  -8.1362  -7.9136  -7.9136  -7.7911  -7.7911
     7.0035   7.0035   7.0926   7.0926   8.3556   8.3556   8.5173   8.5173
    11.2505  11.2505  11.3417  11.3417  11.5474  11.5474  11.7409  11.7409
    12.5690  12.5690  12.7188  12.7188  13.3647  13.3647  13.5854  13.5854
    13.9752  13.9752

          k =-0.5000-1.4434 0.3132 (  4724 PWs)   bands (ev):

   -31.8273 -31.8273 -31.5696 -31.5696 -31.5311 -31.5311 -31.3702 -31.3702
   -12.8741 -12.8701 -12.7565 -12.7327 -12.6738 -12.6465 -12.4614 -12.4559
    -9.1699  -9.1451  -9.0145  -8.9755  -8.5981  -8.5954  -8.4166  -8.4014
    -8.3583  -8.3185  -8.1665  -8.1218  -7.9282  -7.8661  -7.7666  -7.7079
     6.9562   6.9845   7.0491   7.0855   8.3429   8.3894   8.5299   8.5813
    11.1603  11.1842  11.2774  11.2901  11.7722  11.7951  11.9039  11.9166
    12.5961  12.6388  12.7237  12.7508  13.0014  13.0199  13.1038  13.1195
    13.9053  13.9162

          k =-0.5000-1.4434-0.6263 (  4696 PWs)   bands (ev):

   -31.8268 -31.8268 -31.5603 -31.5603 -31.5404 -31.5404 -31.3707 -31.3707
   -12.8796 -12.8796 -12.7267 -12.7267 -12.6863 -12.6863 -12.4633 -12.4633
    -9.1700  -9.1700  -8.9859  -8.9859  -8.5987  -8.5987  -8.4448  -8.4448
    -8.3030  -8.3030  -8.1465  -8.1465  -7.8953  -7.8953  -7.6794  -7.6794
     6.9269   6.9269   7.0449   7.0449   8.3945   8.3945   8.6029   8.6029
    11.0457  11.0457  11.3292  11.3292  11.8454  11.8454  12.0781  12.0781
    12.5739  12.5739  12.7002  12.7002  12.7980  12.7980  12.9719  12.9719
    14.0977  14.0977

          k = 0.0000-0.5774 0.3132 (  4725 PWs)   bands (ev):

   -31.8481 -31.8480 -31.5887 -31.5886 -31.5482 -31.5480 -31.3833 -31.3831
   -12.8860 -12.8508 -12.7431 -12.7077 -12.6304 -12.6134 -12.3821 -12.3628
    -9.1548  -9.0912  -8.9831  -8.9135  -8.5214  -8.5050  -8.4133  -8.3582
    -8.2043  -8.1418  -8.0588  -8.0253  -7.8842  -7.7799  -7.5551  -7.5232
     6.2821   6.3538   6.9224   6.9810   8.4604   8.5324   8.7615   8.9136
    10.6911  10.6935  11.1288  11.1648  11.6825  11.7919  11.9405  11.9855
    12.5725  12.7051  12.8045  12.8275  13.0125  13.0952  13.6832  13.7273
    13.9048  13.9618

          k =-0.2500-0.1443 0.3132 (  4740 PWs)   bands (ev):

   -31.8687 -31.8687 -31.6077 -31.6077 -31.5647 -31.5647 -31.3962 -31.3961
   -12.8766 -12.8635 -12.7184 -12.7155 -12.5780 -12.5713 -12.2931 -12.2831
    -9.1282  -9.0673  -8.9081  -8.8930  -8.5110  -8.5005  -8.2416  -8.1963
    -8.0833  -8.0556  -7.9261  -7.8955  -7.7532  -7.6928  -7.3720  -7.3598
     5.8370   5.8854   6.4771   6.5346   8.4844   8.5390   9.0402   9.0830
    10.1315  10.1743  10.6969  10.7091  11.5879  11.6132  12.3164  12.3413
    12.6645  12.6744  13.1408  13.1487  13.7293  13.7587  13.7873  13.8068
    13.9129  13.9519

          k =-0.2500-0.7217 0.3132 (  4734 PWs)   bands (ev):

   -31.8467 -31.8466 -31.5893 -31.5892 -31.5478 -31.5475 -31.3846 -31.3844
   -12.8862 -12.8508 -12.7399 -12.7076 -12.6123 -12.6004 -12.4019 -12.3792
    -9.1391  -9.0940  -8.9915  -8.9271  -8.4765  -8.4697  -8.4390  -8.4124
    -8.1611  -8.1380  -8.0872  -8.0622  -7.7748  -7.7246  -7.6359  -7.5806
     6.5761   6.6541   6.7666   6.8496   8.2937   8.3578   8.7193   8.8675
    10.7709  10.8375  11.1291  11.1698  11.5318  11.6072  11.9133  12.0033
    12.5467  12.6145  12.7015  12.7681  13.2438  13.2885  13.3994  13.5093
    13.8172  13.8329

          k =-0.2500 1.0104 0.3132 (  4718 PWs)   bands (ev):

   -31.8273 -31.8273 -31.5694 -31.5694 -31.5313 -31.5313 -31.3702 -31.3702
   -12.8757 -12.8714 -12.7569 -12.7275 -12.6834 -12.6515 -12.4651 -12.4600
    -9.1782  -9.1445  -9.0365  -8.9816  -8.6275  -8.6119  -8.5008  -8.4958
    -8.2740  -8.2503  -8.1099  -8.0843  -7.8957  -7.8579  -7.7318  -7.6860
     6.9276   6.9485   7.0408   7.0613   8.2149   8.3110   8.4663   8.5639
    10.6681  10.6954  10.7844  10.8170  11.6298  11.6609  11.7326  11.7628
    12.6322  12.7009  12.9909  13.0123  13.2744  13.2981  13.4316  13.4737
    13.7056  13.7358

          k =-0.2500 0.4330 0.3132 (  4739 PWs)   bands (ev):

   -31.8496 -31.8496 -31.5881 -31.5879 -31.5485 -31.5483 -31.3820 -31.3817
   -12.8880 -12.8571 -12.7412 -12.7092 -12.6456 -12.6321 -12.3606 -12.3414
    -9.1676  -9.0833  -8.9746  -8.9111  -8.5491  -8.5106  -8.4150  -8.3558
    -8.1965  -8.1360  -8.0370  -7.9985  -7.9404  -7.8110  -7.5251  -7.4992
     6.1886   6.2529   7.0463   7.0788   8.4263   8.5045   8.7167   8.8669
    10.6321  10.6573  11.1273  11.1925  11.6647  11.7570  12.1455  12.1639
    12.5097  12.5238  12.6273  12.8096  13.0335  13.1844  13.7690  13.8569
    13.9729  13.9989

          k = 0.5000-0.2887 0.3132 (  4725 PWs)   bands (ev):

   -31.8481 -31.8480 -31.5886 -31.5885 -31.5482 -31.5480 -31.3834 -31.3831
   -12.8852 -12.8497 -12.7378 -12.7083 -12.6320 -12.6207 -12.3845 -12.3579
    -9.1517  -9.0810  -8.9822  -8.9169  -8.5275  -8.5056  -8.4071  -8.3775
    -8.1997  -8.1533  -8.0776  -8.0078  -7.8635  -7.7687  -7.5668  -7.5299
     6.4531   6.5452   6.9345   6.9876   8.2711   8.3554   8.6656   8.7868
    10.5952  10.6364  11.0774  11.1038  11.7749  11.8762  12.0605  12.1200
    12.5827  12.6525  12.7131  12.7466  13.0474  13.1592  13.6761  13.7262
    13.8469  13.8886

     the Fermi energy is    12.3823 ev

!    total energy              =   -2242.37128093 Ry
     Harris-Foulkes estimate   =   -2242.37128176 Ry
     estimated scf accuracy    <       0.00000100 Ry

     total all-electron energy =    -90246.714675 Ry

     The total energy is the sum of the following terms:

     one-electron contribution =     -31.77832425 Ry
     hartree contribution      =      39.77829471 Ry
     xc contribution           =    -255.29885302 Ry
     ewald contribution        =    -246.98005572 Ry
     one-center paw contrib.   =   -1748.08990340 Ry
     smearing contrib. (-TS)   =      -0.00243927 Ry

     convergence has been achieved in  10 iterations

     Writing output data file 2334.save
 
     init_run     :      2.49s CPU      3.72s WALL (       1 calls)
     electrons    :     42.66s CPU     45.47s WALL (       1 calls)

     Called by init_run:
     wfcinit      :      2.16s CPU      2.56s WALL (       1 calls)
     potinit      :      0.13s CPU      0.30s WALL (       1 calls)

     Called by electrons:
     c_bands      :     35.54s CPU     37.22s WALL (      10 calls)
     sum_band     :      5.18s CPU      5.54s WALL (      10 calls)
     v_of_rho     :      0.03s CPU      0.05s WALL (      11 calls)
     newd         :      0.73s CPU      0.81s WALL (      11 calls)
     PAW_pot      :      1.22s CPU      1.33s WALL (      11 calls)
     mix_rho      :      0.07s CPU      0.09s WALL (      10 calls)

     Called by c_bands:
     init_us_2    :      0.20s CPU      0.22s WALL (     756 calls)
     cegterg      :     33.65s CPU     35.23s WALL (     360 calls)

     Called by sum_band:
     sum_band:bec :      1.73s CPU      1.74s WALL (     360 calls)
     addusdens    :      0.21s CPU      0.30s WALL (      10 calls)

     Called by *egterg:
     h_psi        :     18.26s CPU     19.66s WALL (    1653 calls)
     s_psi        :      2.05s CPU      2.07s WALL (    1653 calls)
     g_psi        :      0.04s CPU      0.04s WALL (    1257 calls)
     cdiaghg      :      9.90s CPU     10.20s WALL (    1617 calls)

     Called by h_psi:
     h_psi:pot    :     17.99s CPU     19.38s WALL (    1653 calls)
     h_psi:calbec :      1.29s CPU      1.52s WALL (    1653 calls)
     vloc_psi     :     14.69s CPU     15.82s WALL (    1653 calls)
     add_vuspsi   :      2.00s CPU      2.02s WALL (    1653 calls)

     General routines
     calbec       :      1.59s CPU      1.88s WALL (    2013 calls)
     fft          :      0.03s CPU      0.34s WALL (     205 calls)
     fftw         :     15.57s CPU     16.78s WALL (  269296 calls)
     davcio       :      0.00s CPU      0.01s WALL (      36 calls)
 
     Parallel routines
     fft_scatter  :     10.07s CPU     10.88s WALL (  269501 calls)
 
     PWSCF        :  0m46.33s CPU     1m54.18s WALL

 
   This run was terminated on:  11: 1: 5  16Nov2022            

=------------------------------------------------------------------------------=
   JOB DONE.
=------------------------------------------------------------------------------=
Removing 2334 from /home/shaharpit/tmp
