
     Program PWSCF v.6.1 (svn rev. 13369) starts on 30Nov2022 at 13:42:32 

     This program is part of the open-source Quantum ESPRESSO suite
     for quantum simulation of materials; please cite
         "P. Giannozzi et al., J. Phys.:Condens. Matter 21 395502 (2009);
          URL http://www.quantum-espresso.org", 
     in publications or presentations arising from this work. More details at
     http://www.quantum-espresso.org/quote

     Parallel version (MPI), running on     4 processors
     R & G space division:  proc/nbgrp/npool/nimage =       4
     Reading input from ./hcp_75_1.1.in
Warning: card &IONS ignored
Warning: card 	ION_DYNAMICS='BFGS', ignored
Warning: card / ignored
Warning: card &CELL ignored
Warning: card / ignored

     Current dimensions of program PWSCF are:
     Max number of different atomic species (ntypx) = 10
     Max number of k-points (npk) =  40000
     Max angular momentum in pseudopotentials (lmaxx) =  3
               file Gd.rel-pbe-spdn-kjpaw_psl.1.0.0.UPF: wavefunction(s)  5P 5P renormalized
               file H.pbe-kjpaw_psl.0.1.UPF: wavefunction(s)  1S renormalized

     Subspace diagonalization in iterative solution of the eigenvalue problem:
     a serial algorithm will be used

 
     Parallelization info
     --------------------
     sticks:   dense  smooth     PW     G-vecs:    dense   smooth      PW
     Min         339     339    105                11569    11569    1959
     Max         340     340    107                11571    11571    1960
     Sum        1357    1357    423                46279    46279    7837
 


     bravais-lattice index     =            0
     lattice parameter (alat)  =      14.0996  a.u.
     unit-cell volume          =     968.9289 (a.u.)^3
     number of atoms/cell      =           10
     number of atomic types    =            2
     number of electrons       =        50.00
     number of Kohn-Sham states=           60
     kinetic-energy cutoff     =      50.0000  Ry
     charge density cutoff     =     200.0000  Ry
     convergence threshold     =      1.0E-06
     mixing beta               =       0.7000
     number of iterations used =            8  plain     mixing
     Exchange-correlation      =  SLA  PW   PBX  PBC ( 1  4  3  4 0 0)
     Non magnetic calculation with spin-orbit


     celldm(1)=  14.099625  celldm(2)=   0.000000  celldm(3)=   0.000000
     celldm(4)=   0.000000  celldm(5)=   0.000000  celldm(6)=   0.000000

     crystal axes: (cart. coord. in units of alat)
               a(1) = (   1.000000   0.000000   0.000000 )  
               a(2) = (  -0.250000   0.433013   0.000000 )  
               a(3) = (   0.000000   0.000000   0.798303 )  

     reciprocal axes: (cart. coord. in units 2 pi/alat)
               b(1) = (  1.000000  0.577349  0.000000 )  
               b(2) = (  0.000000  2.309397  0.000000 )  
               b(3) = (  0.000000  0.000000  1.252657 )  


     PseudoPot. # 1 for Gd read from file:
     /home/shaharpit/MeamGdH/dft/qe_potentials/Gd.rel-pbe-spdn-kjpaw_psl.1.0.0.UPF
     MD5 check sum: cf50ec46d1536b4a0251694df1946a53
     Pseudo is Projector augmented-wave + core cor, Zval = 11.0
     Generated using "atomic" code by A. Dal Corso  v.6.2.2
     Shape of augmentation charge: PSQ
     Using radial grid of 1263 points, 10 beta functions with: 
                l(1) =   0
                l(2) =   0
                l(3) =   1
                l(4) =   1
                l(5) =   1
                l(6) =   1
                l(7) =   2
                l(8) =   2
                l(9) =   2
               l(10) =   2
     Q(r) pseudized with 0 coefficients 


     PseudoPot. # 2 for  H read from file:
     /home/shaharpit/MeamGdH/dft/qe_potentials/H.pbe-kjpaw_psl.0.1.UPF
     MD5 check sum: fbb168fef676c0aaadbafd73f5b1efa8
     Pseudo is Projector augmented-wave, Zval =  1.0
     Generated using "atomic" code by A. Dal Corso  v.5.0.2 svn rev. 9415
     Shape of augmentation charge: PSQ
     Using radial grid of  929 points,  2 beta functions with: 
                l(1) =   0
                l(2) =   0
     Q(r) pseudized with 0 coefficients 


     atomic species   valence    mass     pseudopotential
        Gd            11.00   157.25000     Gd( 1.00)
        H              1.00     1.00794      H( 1.00)

     No symmetry found



   Cartesian axes

     site n.     atom                  positions (alat units)
         1           Gd  tau(   1) = (   0.2499750   0.1443234   0.5987274  )
         2           Gd  tau(   2) = (   0.7499750   0.1443234   0.5987274  )
         3           Gd  tau(   3) = (   0.0000250   0.2886901   0.1995758  )
         4           Gd  tau(   4) = (   0.5000250   0.2886901   0.1995758  )
         5           H   tau(   5) = (   0.2603500   0.1351868   0.7733962  )
         6           H   tau(   6) = (   0.7141750   0.1153981   0.7679677  )
         7           H   tau(   7) = (   0.7241000   0.3952547   0.4070548  )
         8           H   tau(   8) = (   0.2676250   0.4208458   0.3987525  )
         9           H   tau(   9) = (  -0.0020500   0.4258254   0.2957713  )
        10           H   tau(  10) = (   0.7594250   0.0214342   0.2383733  )

     number of k points=    36  gaussian smearing, width (Ry)=  0.0100
                       cart. coord. in units 2pi/alat
        k(    1) = (   0.0000000   0.0000000   0.0000000), wk =   0.0156250
        k(    2) = (   0.0000000   0.0000000   0.3131642), wk =   0.0312500
        k(    3) = (   0.0000000   0.0000000  -0.6263284), wk =   0.0156250
        k(    4) = (   0.0000000   0.5773493   0.0000000), wk =   0.0312500
        k(    5) = (   0.0000000   0.5773493   0.3131642), wk =   0.0312500
        k(    6) = (   0.0000000   0.5773493  -0.6263284), wk =   0.0312500
        k(    7) = (   0.0000000  -1.1546985   0.0000000), wk =   0.0156250
        k(    8) = (   0.0000000  -1.1546985   0.3131642), wk =   0.0312500
        k(    9) = (   0.0000000  -1.1546985  -0.6263284), wk =   0.0156250
        k(   10) = (   0.2500000   0.1443373   0.0000000), wk =   0.0312500
        k(   11) = (   0.2500000   0.1443373   0.3131642), wk =   0.0312500
        k(   12) = (   0.2500000   0.1443373  -0.6263284), wk =   0.0312500
        k(   13) = (   0.2500000   0.7216866   0.0000000), wk =   0.0312500
        k(   14) = (   0.2500000   0.7216866   0.3131642), wk =   0.0312500
        k(   15) = (   0.2500000   0.7216866  -0.6263284), wk =   0.0312500
        k(   16) = (   0.2500000  -1.0103612   0.0000000), wk =   0.0312500
        k(   17) = (   0.2500000  -1.0103612   0.3131642), wk =   0.0312500
        k(   18) = (   0.2500000  -1.0103612  -0.6263284), wk =   0.0312500
        k(   19) = (   0.2500000  -0.4330119   0.0000000), wk =   0.0312500
        k(   20) = (   0.2500000  -0.4330119   0.3131642), wk =   0.0312500
        k(   21) = (   0.2500000  -0.4330119  -0.6263284), wk =   0.0312500
        k(   22) = (  -0.5000000  -0.2886746   0.0000000), wk =   0.0156250
        k(   23) = (  -0.5000000  -0.2886746   0.3131642), wk =   0.0312500
        k(   24) = (  -0.5000000  -0.2886746  -0.6263284), wk =   0.0156250
        k(   25) = (  -0.5000000   0.2886746   0.0000000), wk =   0.0312500
        k(   26) = (  -0.5000000   0.2886746   0.3131642), wk =   0.0312500
        k(   27) = (  -0.5000000   0.2886746  -0.6263284), wk =   0.0312500
        k(   28) = (  -0.5000000  -1.4433732   0.0000000), wk =   0.0156250
        k(   29) = (  -0.5000000  -1.4433732   0.3131642), wk =   0.0312500
        k(   30) = (  -0.5000000  -1.4433732  -0.6263284), wk =   0.0156250
        k(   31) = (   0.0000000  -0.5773493   0.3131642), wk =   0.0312500
        k(   32) = (  -0.2500000  -0.1443373   0.3131642), wk =   0.0312500
        k(   33) = (  -0.2500000  -0.7216866   0.3131642), wk =   0.0312500
        k(   34) = (  -0.2500000   1.0103612   0.3131642), wk =   0.0312500
        k(   35) = (  -0.2500000   0.4330119   0.3131642), wk =   0.0312500
        k(   36) = (   0.5000000  -0.2886746   0.3131642), wk =   0.0312500

     Dense  grid:    46279 G-vectors     FFT dimensions: (  64,  32,  54)

     Estimated max dynamical RAM per process >     145.09MB

     Estimated total allocated dynamical RAM >     580.37MB

     Initial potential from superposition of free atoms

     starting charge   49.92376, renormalised to   50.00000
     Starting wfc are  116 randomized atomic wfcs
     Checking if some PAW data can be deallocated... 

     total cpu time spent up to now is       10.3 secs

     per-process dynamical memory:   169.6 Mb

     Self-consistent Calculation

     iteration #  1     ecut=    50.00 Ry     beta=0.70
     Davidson diagonalization with overlap
     ethr =  1.00E-02,  avg # of iterations =  2.0

     total cpu time spent up to now is       25.8 secs

     total energy              =   -2244.03079224 Ry
     Harris-Foulkes estimate   =   -2244.48041412 Ry
     estimated scf accuracy    <       0.79171956 Ry

     iteration #  2     ecut=    50.00 Ry     beta=0.70
     Davidson diagonalization with overlap
     ethr =  1.58E-03,  avg # of iterations =  2.8

     total cpu time spent up to now is       40.5 secs

     total energy              =   -2244.14199570 Ry
     Harris-Foulkes estimate   =   -2244.22758507 Ry
     estimated scf accuracy    <       0.13272212 Ry

     iteration #  3     ecut=    50.00 Ry     beta=0.70
     Davidson diagonalization with overlap
     ethr =  2.65E-04,  avg # of iterations =  4.1

     total cpu time spent up to now is       58.9 secs

     total energy              =   -2244.14168983 Ry
     Harris-Foulkes estimate   =   -2244.25525073 Ry
     estimated scf accuracy    <       0.37386690 Ry

     iteration #  4     ecut=    50.00 Ry     beta=0.70
     Davidson diagonalization with overlap
     ethr =  2.65E-04,  avg # of iterations =  3.8

     total cpu time spent up to now is       75.6 secs

     total energy              =   -2244.19487918 Ry
     Harris-Foulkes estimate   =   -2244.20075542 Ry
     estimated scf accuracy    <       0.01611376 Ry

     iteration #  5     ecut=    50.00 Ry     beta=0.70
     Davidson diagonalization with overlap
     ethr =  3.22E-05,  avg # of iterations =  3.3

     total cpu time spent up to now is       91.4 secs

     total energy              =   -2244.19749005 Ry
     Harris-Foulkes estimate   =   -2244.19933806 Ry
     estimated scf accuracy    <       0.00487452 Ry

     iteration #  6     ecut=    50.00 Ry     beta=0.70
     Davidson diagonalization with overlap
     ethr =  9.75E-06,  avg # of iterations =  3.4

     total cpu time spent up to now is      106.9 secs

     total energy              =   -2244.19830124 Ry
     Harris-Foulkes estimate   =   -2244.19858726 Ry
     estimated scf accuracy    <       0.00067071 Ry

     iteration #  7     ecut=    50.00 Ry     beta=0.70
     Davidson diagonalization with overlap
     ethr =  1.34E-06,  avg # of iterations =  4.2

     total cpu time spent up to now is      123.0 secs

     total energy              =   -2244.19842529 Ry
     Harris-Foulkes estimate   =   -2244.19852701 Ry
     estimated scf accuracy    <       0.00029538 Ry

     iteration #  8     ecut=    50.00 Ry     beta=0.70
     Davidson diagonalization with overlap
     ethr =  5.91E-07,  avg # of iterations =  2.7

     total cpu time spent up to now is      137.3 secs

     total energy              =   -2244.19847816 Ry
     Harris-Foulkes estimate   =   -2244.19848364 Ry
     estimated scf accuracy    <       0.00001624 Ry

     iteration #  9     ecut=    50.00 Ry     beta=0.70
     Davidson diagonalization with overlap
     ethr =  3.25E-08,  avg # of iterations =  2.7

     total cpu time spent up to now is      176.9 secs

     End of self-consistent calculation

          k = 0.0000 0.0000 0.0000 (  5761 PWs)   bands (ev):

   -34.6806 -34.6806 -34.4989 -34.4989 -34.2097 -34.2097 -34.0390 -34.0390
   -15.7550 -15.7550 -15.5485 -15.5485 -15.2495 -15.2495 -15.0697 -15.0697
   -11.9666 -11.9666 -11.7346 -11.7346 -11.4404 -11.4404 -11.2602 -11.2602
   -10.9170 -10.9170 -10.6604 -10.6604 -10.5118 -10.5118 -10.2116 -10.2116
     2.7872   2.7872   5.0177   5.0177   5.1813   5.1813   6.0209   6.0209
     7.0530   7.0530   7.3750   7.3750   8.3154   8.3154   8.8248   8.8248
     9.4548   9.4548  10.2025  10.2025  10.6525  10.6525  10.9693  10.9693
    11.0771  11.0771  11.6770  11.6770

          k = 0.0000 0.0000 0.3132 (  5777 PWs)   bands (ev):

   -34.6801 -34.6801 -34.4984 -34.4984 -34.2104 -34.2104 -34.0395 -34.0394
   -15.7539 -15.7474 -15.5384 -15.5370 -15.2587 -15.2539 -15.0817 -15.0758
   -11.9744 -11.9516 -11.7228 -11.7080 -11.4460 -11.4281 -11.2728 -11.2507
   -10.9372 -10.9095 -10.6971 -10.6869 -10.5200 -10.4923 -10.2140 -10.2131
     3.1136   3.1465   4.7305   4.7849   5.4352   5.5352   5.8149   5.8608
     6.7449   6.8038   7.2266   7.2678   8.2244   8.2575   8.7531   8.8041
     9.6530   9.6618  10.1400  10.1550  10.6524  10.6997  10.8638  10.8730
    11.0493  11.0862  11.4796  11.5090

          k = 0.0000 0.0000-0.6263 (  5758 PWs)   bands (ev):

   -34.6795 -34.6795 -34.4978 -34.4978 -34.2111 -34.2111 -34.0399 -34.0399
   -15.7466 -15.7466 -15.5255 -15.5255 -15.2640 -15.2640 -15.0879 -15.0879
   -11.9613 -11.9613 -11.6912 -11.6912 -11.4359 -11.4359 -11.2641 -11.2641
   -10.9292 -10.9292 -10.7261 -10.7261 -10.4987 -10.4987 -10.2154 -10.2154
     3.6552   3.6552   4.6471   4.6471   5.1289   5.1289   5.8815   5.8815
     6.5983   6.5983   7.1161   7.1161   8.1216   8.1216   8.9092   8.9092
     9.8719   9.8719  10.0353  10.0353  10.6849  10.6849  10.8388  10.8388
    11.0838  11.0838  11.4039  11.4039

          k = 0.0000 0.5773 0.0000 (  5800 PWs)   bands (ev):

   -34.6712 -34.6711 -34.4910 -34.4909 -34.2023 -34.2022 -34.0331 -34.0330
   -15.7756 -15.7654 -15.5985 -15.5839 -15.2669 -15.2621 -15.1028 -15.0974
   -11.9938 -11.9752 -11.8106 -11.7874 -11.4670 -11.4418 -11.3123 -11.2930
   -10.9563 -10.9375 -10.7234 -10.7114 -10.5545 -10.5475 -10.3545 -10.3495
     3.7695   3.8817   4.7101   4.8764   5.5917   5.6432   5.9894   6.1654
     6.8040   6.9087   7.2021   7.2382   8.6317   8.6628   9.0135   9.1007
     9.3122   9.3738   9.8706   9.9872  10.5656  10.6077  10.7222  10.7464
    10.9234  11.0097  11.2573  11.3513

          k = 0.0000 0.5773 0.3132 (  5776 PWs)   bands (ev):

   -34.6708 -34.6707 -34.4906 -34.4905 -34.2028 -34.2027 -34.0334 -34.0333
   -15.7730 -15.7590 -15.5953 -15.5797 -15.2751 -15.2672 -15.1091 -15.1012
   -11.9946 -11.9626 -11.8166 -11.7690 -11.4641 -11.4544 -11.3138 -11.2909
   -10.9693 -10.9384 -10.7415 -10.7201 -10.5543 -10.5218 -10.3541 -10.3423
     4.0695   4.1424   4.7666   4.8940   5.6710   5.7118   6.0131   6.0730
     6.4788   6.5566   6.8988   6.9405   8.5190   8.5874   9.0207   9.0552
     9.3934   9.4638   9.7328   9.7574  10.4803  10.5528  10.9134  10.9275
    10.9645  11.0380  11.3195  11.3384

          k = 0.0000 0.5773-0.6263 (  5782 PWs)   bands (ev):

   -34.6706 -34.6705 -34.4902 -34.4902 -34.2032 -34.2031 -34.0337 -34.0336
   -15.7730 -15.7589 -15.5947 -15.5779 -15.2768 -15.2704 -15.1108 -15.1038
   -12.0027 -11.9587 -11.8139 -11.7721 -11.4499 -11.4413 -11.2979 -11.2768
   -10.9838 -10.9386 -10.7671 -10.7510 -10.5528 -10.5082 -10.3460 -10.3368
     4.2498   4.3270   4.7863   4.8845   5.5348   5.5465   6.0906   6.1753
     6.4385   6.5090   6.8882   6.9092   8.2460   8.3273   9.0575   9.1294
     9.6148   9.6681  10.0997  10.1363  10.1994  10.2327  10.3949  10.4044
    11.1195  11.1814  11.5463  11.5515

          k = 0.0000-1.1547 0.0000 (  5796 PWs)   bands (ev):

   -34.6624 -34.6624 -34.4820 -34.4820 -34.1954 -34.1954 -34.0266 -34.0266
   -15.8022 -15.8022 -15.6290 -15.6290 -15.2855 -15.2855 -15.1245 -15.1245
   -12.0270 -12.0270 -11.8481 -11.8481 -11.4953 -11.4953 -11.3362 -11.3362
   -10.9583 -10.9583 -10.7677 -10.7677 -10.5790 -10.5790 -10.4430 -10.4430
     4.8377   4.8377   5.0474   5.0474   5.2391   5.2391   5.6639   5.6639
     6.7203   6.7203   6.9342   6.9342   8.6181   8.6181   8.7034   8.7034
     9.6752   9.6752   9.9379   9.9379  10.6043  10.6043  10.7916  10.7916
    10.9538  10.9538  11.1310  11.1310

          k = 0.0000-1.1547 0.3132 (  5768 PWs)   bands (ev):

   -34.6624 -34.6624 -34.4819 -34.4819 -34.1955 -34.1955 -34.0266 -34.0266
   -15.8056 -15.8042 -15.6323 -15.6287 -15.2890 -15.2851 -15.1263 -15.1239
   -12.0347 -12.0230 -11.8690 -11.8420 -11.4974 -11.4827 -11.3361 -11.3140
   -10.9703 -10.9556 -10.7881 -10.7594 -10.5820 -10.5553 -10.4443 -10.4193
     4.7082   4.7454   4.8282   4.8472   5.4360   5.5817   5.6409   5.7136
     6.6836   6.7430   6.8562   6.9250   8.6602   8.6715   8.8727   8.8966
     9.7684   9.7932   9.9482  10.0261  10.5430  10.5655  10.8331  10.8684
    11.0072  11.0482  11.2315  11.2820

          k = 0.0000-1.1547-0.6263 (  5800 PWs)   bands (ev):

   -34.6623 -34.6623 -34.4817 -34.4817 -34.1957 -34.1957 -34.0267 -34.0267
   -15.8075 -15.8075 -15.6321 -15.6321 -15.2884 -15.2884 -15.1259 -15.1259
   -12.0308 -12.0308 -11.8637 -11.8637 -11.4836 -11.4836 -11.3150 -11.3150
   -10.9660 -10.9660 -10.7819 -10.7819 -10.5575 -10.5575 -10.4203 -10.4203
     4.6635   4.6635   4.7288   4.7288   5.5999   5.5999   5.7088   5.7088
     6.5583   6.5583   6.9876   6.9876   8.9003   8.9003   8.9852   8.9852
     9.8496   9.8496   9.9131   9.9131  10.6180  10.6180  10.9053  10.9053
    11.1601  11.1601  11.8618  11.8619

          k = 0.2500 0.1443 0.0000 (  5751 PWs)   bands (ev):

   -34.6799 -34.6799 -34.4997 -34.4996 -34.2092 -34.2091 -34.0395 -34.0395
   -15.7505 -15.7484 -15.5523 -15.5506 -15.2460 -15.2429 -15.0763 -15.0743
   -11.9582 -11.9495 -11.7429 -11.7318 -11.4460 -11.4231 -11.2834 -11.2632
   -10.9022 -10.8892 -10.6925 -10.6789 -10.4886 -10.4841 -10.2518 -10.2490
     3.0046   3.0718   4.4117   4.5499   5.5343   5.6273   6.0312   6.1211
     7.0865   7.1280   7.3497   7.3770   8.3380   8.3627   8.7871   8.8298
     9.5275   9.5787  10.1588  10.2441  10.6431  10.7107  10.8548  10.9435
    11.0496  11.1249  11.4577  11.5424

          k = 0.2500 0.1443 0.3132 (  5768 PWs)   bands (ev):

   -34.6794 -34.6794 -34.4991 -34.4991 -34.2098 -34.2098 -34.0400 -34.0400
   -15.7461 -15.7419 -15.5442 -15.5401 -15.2534 -15.2502 -15.0873 -15.0794
   -11.9533 -11.9408 -11.7334 -11.7113 -11.4419 -11.4173 -11.2820 -11.2633
   -10.9227 -10.8997 -10.7233 -10.7058 -10.4888 -10.4651 -10.2537 -10.2504
     3.3188   3.3770   4.6464   4.7948   5.2396   5.2874   5.8934   5.9473
     6.8113   6.8397   7.3767   7.4410   8.3221   8.3421   8.6255   8.6588
     9.7849   9.8147  10.1838  10.2279  10.5213  10.5642  10.6734  10.7526
    10.9631  10.9879  11.4533  11.4713

          k = 0.2500 0.1443-0.6263 (  5782 PWs)   bands (ev):

   -34.6788 -34.6788 -34.4985 -34.4985 -34.2105 -34.2105 -34.0406 -34.0406
   -15.7393 -15.7366 -15.5349 -15.5318 -15.2609 -15.2593 -15.0916 -15.0898
   -11.9462 -11.9334 -11.7140 -11.7018 -11.4335 -11.4250 -11.2721 -11.2640
   -10.9212 -10.9122 -10.7557 -10.7441 -10.4744 -10.4712 -10.2514 -10.2499
     3.7989   3.8590   4.5204   4.5815   5.1900   5.2011   5.8306   5.8975
     6.6187   6.6832   7.1705   7.1856   8.2037   8.2678   8.8549   8.9210
     9.9044   9.9320  10.0555  10.1009  10.5284  10.5665  10.7175  10.7400
    10.9880  11.0305  11.0642  11.1139

          k = 0.2500 0.7217 0.0000 (  5780 PWs)   bands (ev):

   -34.6709 -34.6708 -34.4913 -34.4912 -34.2021 -34.2020 -34.0334 -34.0333
   -15.7766 -15.7667 -15.5985 -15.5828 -15.2647 -15.2596 -15.1053 -15.1001
   -11.9878 -11.9781 -11.8006 -11.7848 -11.4715 -11.4491 -11.3231 -11.2965
   -10.9277 -10.9064 -10.7554 -10.7336 -10.5230 -10.5167 -10.3839 -10.3767
     4.0824   4.2165   4.3248   4.4370   5.7179   5.7735   5.9105   6.0221
     6.8147   6.9016   7.2060   7.2228   8.6448   8.6971   8.9240   8.9799
     9.6258   9.6545   9.7732   9.8851  10.6116  10.6515  10.7066  10.7453
    10.7742  10.8778  11.1108  11.2114

          k = 0.2500 0.7217 0.3132 (  5788 PWs)   bands (ev):

   -34.6705 -34.6705 -34.4909 -34.4908 -34.2025 -34.2024 -34.0337 -34.0336
   -15.7731 -15.7604 -15.5968 -15.5788 -15.2731 -15.2653 -15.1112 -15.1027
   -11.9853 -11.9617 -11.8133 -11.7707 -11.4702 -11.4608 -11.3193 -11.2921
   -10.9393 -10.9123 -10.7688 -10.7435 -10.5203 -10.5011 -10.3831 -10.3639
     4.1953   4.3196   4.5049   4.5874   5.7739   5.8210   5.9821   6.0492
     6.5492   6.6487   6.8193   6.8521   8.6780   8.7498   9.0516   9.1113
     9.5283   9.5421   9.7410   9.7883  10.5265  10.5910  10.7511  10.7919
    10.9167  10.9839  11.1014  11.1285

          k = 0.2500 0.7217-0.6263 (  5776 PWs)   bands (ev):

   -34.6703 -34.6702 -34.4905 -34.4905 -34.2029 -34.2028 -34.0340 -34.0339
   -15.7734 -15.7609 -15.5957 -15.5765 -15.2752 -15.2684 -15.1126 -15.1058
   -11.9871 -11.9585 -11.8230 -11.7695 -11.4513 -11.4465 -11.3014 -11.2766
   -10.9571 -10.9253 -10.7894 -10.7721 -10.5124 -10.4917 -10.3807 -10.3523
     4.4311   4.5007   4.5500   4.5879   5.5612   5.6053   5.8099   5.8709
     6.7308   6.7996   6.8646   6.9365   8.6374   8.6952   8.9963   9.0988
     9.6908   9.7363   9.9806  10.0106  10.2112  10.2482  10.3615  10.4061
    10.9122  10.9376  11.5517  11.5817

          k = 0.2500-1.0104 0.0000 (  5830 PWs)   bands (ev):

   -34.6624 -34.6624 -34.4820 -34.4820 -34.1954 -34.1954 -34.0266 -34.0266
   -15.8011 -15.7985 -15.6312 -15.6285 -15.2850 -15.2848 -15.1239 -15.1238
   -12.0260 -12.0191 -11.8570 -11.8483 -11.4908 -11.4872 -11.3318 -11.3299
   -10.9545 -10.9519 -10.7814 -10.7758 -10.5890 -10.5857 -10.4541 -10.4525
     4.8346   4.8473   4.9720   5.0054   5.3439   5.4770   5.6618   5.7634
     6.6924   6.7262   6.9680   6.9921   8.7799   8.8017   8.9057   8.9381
     9.5390   9.6381   9.8437   9.9305  10.6112  10.6492  10.8323  10.8666
    10.9161  10.9790  11.1299  11.2217

          k = 0.2500-1.0104 0.3132 (  5808 PWs)   bands (ev):

   -34.6624 -34.6624 -34.4819 -34.4819 -34.1955 -34.1955 -34.0266 -34.0266
   -15.8047 -15.8003 -15.6331 -15.6291 -15.2883 -15.2848 -15.1256 -15.1234
   -12.0309 -12.0203 -11.8694 -11.8479 -11.4906 -11.4749 -11.3326 -11.3117
   -10.9653 -10.9456 -10.7957 -10.7810 -10.5921 -10.5601 -10.4545 -10.4271
     4.6772   4.7025   4.8240   4.8394   5.6897   5.7075   5.8007   5.9161
     6.5111   6.5933   6.8930   6.9910   8.9693   8.9818   9.1741   9.2002
     9.4746   9.5410   9.6428   9.7561  10.5782  10.6101  10.6941  10.7461
    10.9959  11.0473  11.4161  11.4505

          k = 0.2500-1.0104-0.6263 (  5768 PWs)   bands (ev):

   -34.6623 -34.6623 -34.4817 -34.4817 -34.1957 -34.1957 -34.0267 -34.0267
   -15.8064 -15.8027 -15.6352 -15.6308 -15.2881 -15.2878 -15.1254 -15.1253
   -12.0341 -12.0215 -11.8749 -11.8566 -11.4796 -11.4745 -11.3145 -11.3085
   -10.9682 -10.9530 -10.8017 -10.7891 -10.5733 -10.5630 -10.4292 -10.4232
     4.7243   4.7394   4.8288   4.8428   5.5437   5.5851   5.7901   5.8285
     6.5362   6.6047   7.0020   7.0740   8.9143   8.9293   9.0522   9.0671
     9.8302   9.8560   9.9163   9.9477  10.3319  10.3668  10.4728  10.5093
    11.1432  11.2105  11.5950  11.6335

          k = 0.2500-0.4330 0.0000 (  5792 PWs)   bands (ev):

   -34.6716 -34.6715 -34.4905 -34.4904 -34.2026 -34.2025 -34.0328 -34.0327
   -15.7819 -15.7696 -15.5934 -15.5812 -15.2685 -15.2644 -15.0998 -15.0939
   -12.0043 -11.9838 -11.7998 -11.7840 -11.4611 -11.4444 -11.3093 -11.2846
   -10.9461 -10.9380 -10.7309 -10.7142 -10.5781 -10.5699 -10.3341 -10.3294
     3.5197   3.6215   5.0735   5.0985   5.4908   5.6531   6.0032   6.1629
     6.8505   6.9255   7.1589   7.2102   8.5933   8.6108   9.1186   9.2021
     9.3438   9.4540   9.9564  10.0643  10.5532  10.6145  10.8828  10.9053
    11.1009  11.1933  11.3664  11.4198

          k = 0.2500-0.4330 0.3132 (  5790 PWs)   bands (ev):

   -34.6713 -34.6712 -34.4902 -34.4901 -34.2030 -34.2029 -34.0331 -34.0330
   -15.7839 -15.7692 -15.5910 -15.5783 -15.2702 -15.2670 -15.1021 -15.0975
   -12.0191 -11.9768 -11.7966 -11.7804 -11.4491 -11.4353 -11.2961 -11.2641
   -10.9591 -10.9413 -10.7620 -10.7440 -10.5827 -10.5439 -10.3313 -10.3219
     3.7245   3.8445   5.0107   5.0559   5.5914   5.6421   5.7598   5.8482
     6.9865   7.1086   7.2377   7.2736   8.3339   8.3615   8.9881   9.0283
     9.4433   9.5098   9.9122   9.9267  10.4351  10.5456  10.7607  10.8212
    11.1828  11.2563  11.3210  11.3978

          k = 0.2500-0.4330-0.6263 (  5812 PWs)   bands (ev):

   -34.6710 -34.6709 -34.4898 -34.4898 -34.2035 -34.2034 -34.0334 -34.0333
   -15.7827 -15.7648 -15.5851 -15.5716 -15.2780 -15.2726 -15.1093 -15.1020
   -12.0226 -11.9694 -11.7896 -11.7631 -11.4522 -11.4425 -11.2963 -11.2722
   -10.9706 -10.9286 -10.7759 -10.7628 -10.5829 -10.5227 -10.3232 -10.3219
     4.1270   4.2022   5.0290   5.0583   5.3809   5.4121   5.9067   5.9424
     6.5844   6.7553   6.9503   7.0146   8.2864   8.3579   9.0787   9.0969
     9.5480   9.5801  10.1618  10.2374  10.2879  10.4056  10.4444  10.4678
    11.2101  11.2525  11.3361  11.4000

          k =-0.5000-0.2887 0.0000 (  5780 PWs)   bands (ev):

   -34.6792 -34.6792 -34.5004 -34.5004 -34.2086 -34.2086 -34.0401 -34.0401
   -15.7437 -15.7437 -15.5547 -15.5547 -15.2390 -15.2390 -15.0811 -15.0811
   -11.9408 -11.9408 -11.7402 -11.7402 -11.4292 -11.4292 -11.2866 -11.2866
   -10.8670 -10.8670 -10.7191 -10.7191 -10.4464 -10.4464 -10.3027 -10.3027
     3.5481   3.5481   3.8608   3.8608   5.9029   5.9029   6.0285   6.0285
     7.1686   7.1686   7.3674   7.3674   8.3676   8.3676   8.8313   8.8313
     9.6788   9.6788  10.0585  10.0585  10.7563  10.7563  10.9283  10.9283
    11.1309  11.1309  11.2667  11.2668

          k =-0.5000-0.2887 0.3132 (  5750 PWs)   bands (ev):

   -34.6787 -34.6787 -34.4998 -34.4998 -34.2093 -34.2093 -34.0406 -34.0406
   -15.7389 -15.7336 -15.5498 -15.5469 -15.2496 -15.2452 -15.0907 -15.0839
   -11.9362 -11.9191 -11.7427 -11.7259 -11.4364 -11.4147 -11.2955 -11.2644
   -10.8896 -10.8783 -10.7576 -10.7393 -10.4452 -10.4344 -10.3055 -10.2953
     3.7597   3.7953   4.0347   4.1073   5.5500   5.6347   6.0989   6.1230
     6.7587   6.7815   7.3694   7.4049   8.3812   8.4199   8.7363   8.8111
     9.7301   9.7806  10.0801  10.1034  10.3547  10.4141  10.8632  10.9532
    11.0622  11.0902  11.1240  11.1921

          k =-0.5000-0.2887-0.6263 (  5788 PWs)   bands (ev):

   -34.6782 -34.6782 -34.4992 -34.4992 -34.2099 -34.2099 -34.0412 -34.0412
   -15.7286 -15.7286 -15.5419 -15.5419 -15.2561 -15.2561 -15.0936 -15.0936
   -11.9145 -11.9145 -11.7285 -11.7285 -11.4225 -11.4225 -11.2720 -11.2720
   -10.8996 -10.8996 -10.7785 -10.7785 -10.4343 -10.4343 -10.2984 -10.2984
     4.1356   4.1356   4.3182   4.3182   5.2721   5.2721   5.8319   5.8319
     6.7231   6.7231   7.2488   7.2488   8.4980   8.4980   8.6760   8.6760
     9.9595   9.9595  10.2280  10.2280  10.4089  10.4089  10.5535  10.5535
    10.6805  10.6805  10.9810  10.9810

          k =-0.5000 0.2887 0.0000 (  5800 PWs)   bands (ev):

   -34.6713 -34.6712 -34.4908 -34.4908 -34.2023 -34.2022 -34.0331 -34.0330
   -15.7826 -15.7712 -15.5933 -15.5801 -15.2665 -15.2618 -15.1023 -15.0964
   -11.9997 -11.9845 -11.7924 -11.7799 -11.4670 -11.4499 -11.3204 -11.2879
   -10.9165 -10.9052 -10.7631 -10.7380 -10.5558 -10.5455 -10.3551 -10.3507
     3.6362   3.7583   4.8116   4.9171   5.6099   5.7584   5.9389   6.0482
     6.8731   6.9394   7.1388   7.1980   8.5671   8.5918   9.0310   9.1471
     9.5460   9.6431  10.0030  10.0764  10.6863  10.7518  10.8360  10.8941
    11.0646  11.1446  11.2758  11.2966

          k =-0.5000 0.2887 0.3132 (  5776 PWs)   bands (ev):

   -34.6710 -34.6709 -34.4905 -34.4904 -34.2028 -34.2027 -34.0334 -34.0333
   -15.7807 -15.7664 -15.5892 -15.5740 -15.2742 -15.2679 -15.1093 -15.0997
   -12.0011 -11.9721 -11.7968 -11.7628 -11.4688 -11.4594 -11.3173 -11.2901
   -10.9230 -10.9005 -10.7775 -10.7578 -10.5579 -10.5258 -10.3524 -10.3399
     3.8439   3.9366   4.8440   4.9152   5.7697   5.8669   6.0424   6.0573
     6.5479   6.6392   6.7579   6.8156   8.6777   8.7434   9.1820   9.2749
     9.6254   9.6995   9.8946   9.9347  10.4515  10.5152  10.7270  10.7768
    10.9890  11.0331  11.2512  11.3090

          k =-0.5000 0.2887-0.6263 (  5782 PWs)   bands (ev):

   -34.6707 -34.6706 -34.4901 -34.4900 -34.2032 -34.2031 -34.0337 -34.0336
   -15.7827 -15.7671 -15.5856 -15.5706 -15.2764 -15.2706 -15.1111 -15.1039
   -12.0088 -11.9702 -11.7955 -11.7608 -11.4535 -11.4478 -11.2998 -11.2720
   -10.9387 -10.9138 -10.8047 -10.7843 -10.5531 -10.5085 -10.3467 -10.3355
     4.1822   4.2760   4.8246   4.8956   5.3983   5.4653   5.7673   5.7963
     6.7567   6.8345   7.0130   7.0826   8.5619   8.6527   9.0098   9.0532
     9.8729   9.9945  10.0686  10.1730  10.2645  10.2972  10.4463  10.5177
    10.7118  10.7851  11.4019  11.4617

          k =-0.5000-1.4434 0.0000 (  5820 PWs)   bands (ev):

   -34.6624 -34.6624 -34.4820 -34.4820 -34.1954 -34.1954 -34.0266 -34.0266
   -15.7974 -15.7974 -15.6307 -15.6307 -15.2843 -15.2843 -15.1232 -15.1232
   -12.0180 -12.0180 -11.8574 -11.8574 -11.4826 -11.4826 -11.3254 -11.3254
   -10.9471 -10.9471 -10.7904 -10.7904 -10.5957 -10.5957 -10.4639 -10.4639
     4.8337   4.8337   4.9753   4.9753   5.5209   5.5209   5.8020   5.8020
     6.6797   6.6797   7.0402   7.0402   8.9888   8.9888   9.1822   9.1822
     9.5293   9.5293   9.8000   9.8000  10.6947  10.6947  10.9260  10.9260
    10.9872  10.9872  11.2449  11.2449

          k =-0.5000-1.4434 0.3132 (  5802 PWs)   bands (ev):

   -34.6624 -34.6624 -34.4819 -34.4819 -34.1955 -34.1955 -34.0266 -34.0266
   -15.8006 -15.7983 -15.6336 -15.6310 -15.2876 -15.2841 -15.1251 -15.1229
   -12.0289 -12.0140 -11.8751 -11.8499 -11.4856 -11.4676 -11.3286 -11.3037
   -10.9603 -10.9418 -10.8086 -10.7942 -10.5987 -10.5717 -10.4606 -10.4372
     4.7965   4.8370   4.9633   4.9770   5.5153   5.5857   5.7513   5.8615
     6.5850   6.7023   7.0092   7.1585   8.9265   8.9853   9.1023   9.1808
     9.6608   9.6909   9.8482   9.8896  10.3606  10.4122  10.4828  10.5352
    10.9492  11.0091  11.2337  11.2898

          k =-0.5000-1.4434-0.6263 (  5776 PWs)   bands (ev):

   -34.6623 -34.6623 -34.4817 -34.4817 -34.1957 -34.1957 -34.0267 -34.0267
   -15.8016 -15.8016 -15.6339 -15.6339 -15.2875 -15.2875 -15.1248 -15.1248
   -12.0254 -12.0254 -11.8673 -11.8673 -11.4703 -11.4703 -11.3081 -11.3081
   -10.9541 -10.9541 -10.8099 -10.8099 -10.5791 -10.5791 -10.4318 -10.4318
     4.8069   4.8069   4.9677   4.9677   5.4909   5.4909   5.9227   5.9227
     6.5856   6.5856   7.1020   7.1020   8.8669   8.8669   9.0885   9.0885
     9.9150   9.9150  10.0564  10.0564  10.1430  10.1430  10.2217  10.2217
    11.2761  11.2761  11.3573  11.3573

          k = 0.0000-0.5773 0.3132 (  5776 PWs)   bands (ev):

   -34.6709 -34.6708 -34.4906 -34.4905 -34.2027 -34.2026 -34.0334 -34.0333
   -15.7759 -15.7651 -15.5979 -15.5822 -15.2687 -15.2652 -15.1046 -15.0998
   -12.0020 -11.9698 -11.8149 -11.7852 -11.4523 -11.4296 -11.2971 -11.2769
   -10.9686 -10.9428 -10.7529 -10.7397 -10.5573 -10.5264 -10.3515 -10.3386
     3.8826   4.0025   4.7317   4.8654   5.6840   5.7472   5.8506   5.9659
     6.9127   6.9763   7.1477   7.2014   8.4186   8.4758   9.0247   9.0358
     9.3547   9.4477   9.8767   9.9086  10.4609  10.5340  10.6099  10.6625
    11.0411  11.0985  11.3522  11.4504

          k =-0.2500-0.1443 0.3132 (  5768 PWs)   bands (ev):

   -34.6794 -34.6794 -34.4991 -34.4991 -34.2098 -34.2098 -34.0400 -34.0400
   -15.7473 -15.7392 -15.5440 -15.5429 -15.2554 -15.2488 -15.0850 -15.0801
   -11.9599 -11.9308 -11.7302 -11.7214 -11.4432 -11.4228 -11.2862 -11.2513
   -10.9124 -10.8920 -10.7269 -10.7126 -10.4913 -10.4734 -10.2514 -10.2462
     3.3142   3.3986   4.3389   4.4257   5.6619   5.7624   6.0591   6.1232
     6.6663   6.7088   7.2011   7.2225   8.2487   8.3065   8.9210   9.0146
     9.5610   9.5801  10.1704  10.1966  10.5699  10.5953  10.8006  10.8638
    10.9915  11.0389  11.3325  11.3811

          k =-0.2500-0.7217 0.3132 (  5788 PWs)   bands (ev):

   -34.6706 -34.6705 -34.4909 -34.4908 -34.2024 -34.2023 -34.0337 -34.0336
   -15.7770 -15.7672 -15.5975 -15.5805 -15.2666 -15.2628 -15.1069 -15.1027
   -11.9920 -11.9727 -11.8155 -11.7777 -11.4532 -11.4350 -11.3059 -11.2802
   -10.9434 -10.9230 -10.7778 -10.7624 -10.5198 -10.5003 -10.3833 -10.3621
     4.2694   4.2967   4.4074   4.4618   5.5404   5.6033   5.8261   5.9265
     7.0390   7.0901   7.1594   7.1849   8.6467   8.6682   9.0145   9.0982
     9.4352   9.4913   9.7527   9.7819  10.4645  10.5727  10.6132  10.7133
    10.9909  11.0416  11.2563  11.2699

          k =-0.2500 1.0104 0.3132 (  5808 PWs)   bands (ev):

   -34.6624 -34.6624 -34.4819 -34.4819 -34.1955 -34.1955 -34.0266 -34.0266
   -15.8032 -15.8006 -15.6343 -15.6291 -15.2883 -15.2845 -15.1258 -15.1234
   -12.0349 -12.0142 -11.8772 -11.8418 -11.4924 -11.4757 -11.3321 -11.3060
   -10.9631 -10.9571 -10.7991 -10.7717 -10.5885 -10.5667 -10.4504 -10.4294
     4.8775   4.9069   4.9777   5.0059   5.2926   5.3704   5.5909   5.6594
     6.7361   6.8002   6.9658   7.0807   8.7136   8.7208   8.8855   8.9127
     9.8295   9.8608  10.0556  10.0725  10.3538  10.3812  10.6098  10.6587
    10.9202  10.9398  11.1928  11.2393

          k =-0.2500 0.4330 0.3132 (  5790 PWs)   bands (ev):

   -34.6712 -34.6711 -34.4902 -34.4901 -34.2031 -34.2030 -34.0331 -34.0330
   -15.7808 -15.7648 -15.5879 -15.5747 -15.2761 -15.2697 -15.1071 -15.0983
   -12.0095 -11.9736 -11.7996 -11.7618 -11.4627 -11.4530 -11.3119 -11.2890
   -10.9578 -10.9284 -10.7428 -10.7351 -10.5835 -10.5415 -10.3319 -10.3230
     3.8111   3.8755   5.0666   5.0923   5.6199   5.7534   6.0660   6.1186
     6.4612   6.5310   6.8401   6.9009   8.5615   8.6143   9.1370   9.2216
     9.4528   9.4804   9.8561   9.8858  10.4124  10.5160  10.8696  10.9496
    11.2145  11.2513  11.4102  11.4562

          k = 0.5000-0.2887 0.3132 (  5776 PWs)   bands (ev):

   -34.6710 -34.6709 -34.4905 -34.4904 -34.2027 -34.2026 -34.0334 -34.0333
   -15.7846 -15.7716 -15.5903 -15.5770 -15.2685 -15.2643 -15.1045 -15.1002
   -12.0102 -11.9790 -11.7973 -11.7725 -11.4509 -11.4397 -11.3049 -11.2675
   -10.9312 -10.9206 -10.7888 -10.7680 -10.5536 -10.5231 -10.3541 -10.3408
     3.8755   4.0142   4.7914   4.9020   5.4621   5.5277   5.7398   5.8092
     7.0725   7.1582   7.2751   7.3161   8.4420   8.4674   8.9432   9.0056
     9.6570   9.7734  10.0320  10.0787  10.3847  10.4532  10.6619  10.7382
    10.9469  10.9861  11.1743  11.2659

     the Fermi energy is     9.8231 ev

!    total energy              =   -2244.19848135 Ry
     Harris-Foulkes estimate   =   -2244.19848162 Ry
     estimated scf accuracy    <       0.00000044 Ry

     total all-electron energy =    -90248.541867 Ry

     The total energy is the sum of the following terms:

     one-electron contribution =     -56.13419719 Ry
     hartree contribution      =      48.52322054 Ry
     xc contribution           =    -256.72733350 Ry
     ewald contribution        =    -231.75598174 Ry
     one-center paw contrib.   =   -1748.10040966 Ry
     smearing contrib. (-TS)   =      -0.00377980 Ry

     convergence has been achieved in   9 iterations

     Forces acting on atoms (cartesian axes, Ry/au):

     atom    1 type  1   force =    -0.05071461    0.03376185   -0.70019455
     atom    2 type  1   force =     0.14159115    0.09735043   -0.66450504
     atom    3 type  1   force =     0.00648207   -0.69184774   -0.46208492
     atom    4 type  1   force =    -0.03879166   -0.74589216   -0.19244022
     atom    5 type  2   force =     0.04467871   -0.04243525    0.71159702
     atom    6 type  2   force =    -0.13452679   -0.10979966    0.67323541
     atom    7 type  2   force =     0.00124715    0.00491160   -0.00915300
     atom    8 type  2   force =     0.00039828   -0.00324054   -0.00522851
     atom    9 type  2   force =    -0.01400036    0.70239377    0.46682488
     atom   10 type  2   force =     0.04363604    0.75479769    0.18194892

     Total force =     2.135909     Total SCF correction =     0.001999

     Writing output data file 2413.save
forrtl: Disk quota exceeded
forrtl: Disk quota exceeded
forrtl: Disk quota exceeded
forrtl: Disk quota exceeded
forrtl: severe (28): CLOSE error, unit 10, file "Unknown"
Image              PC                Routine            Line        Source             
pw.x               0000000000B6DF5E  Unknown               Unknown  Unknown
pw.x               0000000000B605F6  Unknown               Unknown  Unknown
pw.x               00000000005FFBCC  buffers_mp_close_         689  buffers.f90
pw.x               00000000006266FF  close_files_               38  close_files.f90
pw.x               0000000000558845  stop_run_                  45  stop_run.f90
pw.x               0000000000406F18  MAIN__                     61  pwscf.f90
pw.x               0000000000406C1E  Unknown               Unknown  Unknown
libc-2.17.so       00007F8B220CC555  __libc_start_main     Unknown  Unknown
pw.x               0000000000406B29  Unknown               Unknown  Unknown
forrtl: severe (28): CLOSE error, unit 10, file "Unknown"
Image              PC                Routine            Line        Source             
pw.x               0000000000B6DF5E  Unknown               Unknown  Unknown
pw.x               0000000000B605F6  Unknown               Unknown  Unknown
pw.x               00000000005FFBCC  buffers_mp_close_         689  buffers.f90
pw.x               00000000006266FF  close_files_               38  close_files.f90
pw.x               0000000000558845  stop_run_                  45  stop_run.f90
pw.x               0000000000406F18  MAIN__                     61  pwscf.f90
pw.x               0000000000406C1E  Unknown               Unknown  Unknown
libc-2.17.so       00007F329CA0B555  __libc_start_main     Unknown  Unknown
pw.x               0000000000406B29  Unknown               Unknown  Unknown
forrtl: severe (28): CLOSE error, unit 10, file "Unknown"
Image              PC                Routine            Line        Source             
pw.x               0000000000B6DF5E  Unknown               Unknown  Unknown
pw.x               0000000000B605F6  Unknown               Unknown  Unknown
pw.x               00000000005FFBCC  buffers_mp_close_         689  buffers.f90
pw.x               00000000006266FF  close_files_               38  close_files.f90
pw.x               0000000000558845  stop_run_                  45  stop_run.f90
pw.x               0000000000406F18  MAIN__                     61  pwscf.f90
pw.x               0000000000406C1E  Unknown               Unknown  Unknown
libc-2.17.so       00007FEAE0E58555  __libc_start_main     Unknown  Unknown
pw.x               0000000000406B29  Unknown               Unknown  Unknown
forrtl: severe (28): CLOSE error, unit 10, file "Unknown"
Image              PC                Routine            Line        Source             
pw.x               0000000000B6DF5E  Unknown               Unknown  Unknown
pw.x               0000000000B605F6  Unknown               Unknown  Unknown
pw.x               00000000005FFBCC  buffers_mp_close_         689  buffers.f90
pw.x               00000000006266FF  close_files_               38  close_files.f90
pw.x               0000000000558845  stop_run_                  45  stop_run.f90
pw.x               0000000000406F18  MAIN__                     61  pwscf.f90
pw.x               0000000000406C1E  Unknown               Unknown  Unknown
libc-2.17.so       00007FD7DD28A555  __libc_start_main     Unknown  Unknown
pw.x               0000000000406B29  Unknown               Unknown  Unknown
Removing 2413 from /home/shaharpit/tmp
