
     Program PWSCF v.6.1 (svn rev. 13369) starts on 30Nov2022 at 13:42:31 

     This program is part of the open-source Quantum ESPRESSO suite
     for quantum simulation of materials; please cite
         "P. Giannozzi et al., J. Phys.:Condens. Matter 21 395502 (2009);
          URL http://www.quantum-espresso.org", 
     in publications or presentations arising from this work. More details at
     http://www.quantum-espresso.org/quote

     Parallel version (MPI), running on     4 processors
     R & G space division:  proc/nbgrp/npool/nimage =       4
     Reading input from ./hcp_125_0.9.in
Warning: card &IONS ignored
Warning: card 	ION_DYNAMICS='BFGS', ignored
Warning: card / ignored
Warning: card &CELL ignored
Warning: card / ignored

     Current dimensions of program PWSCF are:
     Max number of different atomic species (ntypx) = 10
     Max number of k-points (npk) =  40000
     Max angular momentum in pseudopotentials (lmaxx) =  3
               file Gd.rel-pbe-spdn-kjpaw_psl.1.0.0.UPF: wavefunction(s)  5P 5P renormalized
               file H.pbe-kjpaw_psl.0.1.UPF: wavefunction(s)  1S renormalized

     Subspace diagonalization in iterative solution of the eigenvalue problem:
     a serial algorithm will be used

 
     Parallelization info
     --------------------
     sticks:   dense  smooth     PW     G-vecs:    dense   smooth      PW
     Min         298     298     93                 9440     9440    1625
     Max         299     299     94                 9443     9443    1628
     Sum        1195    1195    373                37769    37769    6507
 


     bravais-lattice index     =            0
     lattice parameter (alat)  =      13.1873  a.u.
     unit-cell volume          =     792.7371 (a.u.)^3
     number of atoms/cell      =           14
     number of atomic types    =            2
     number of electrons       =        54.00
     number of Kohn-Sham states=           64
     kinetic-energy cutoff     =      50.0000  Ry
     charge density cutoff     =     200.0000  Ry
     convergence threshold     =      1.0E-06
     mixing beta               =       0.7000
     number of iterations used =            8  plain     mixing
     Exchange-correlation      =  SLA  PW   PBX  PBC ( 1  4  3  4 0 0)
     Non magnetic calculation with spin-orbit


     celldm(1)=  13.187265  celldm(2)=   0.000000  celldm(3)=   0.000000
     celldm(4)=   0.000000  celldm(5)=   0.000000  celldm(6)=   0.000000

     crystal axes: (cart. coord. in units of alat)
               a(1) = (   1.000000   0.000000   0.000000 )  
               a(2) = (  -0.250000   0.433008   0.000000 )  
               a(3) = (   0.000000   0.000000   0.798306 )  

     reciprocal axes: (cart. coord. in units 2 pi/alat)
               b(1) = (  1.000000  0.577357  0.000000 )  
               b(2) = (  0.000000  2.309428  0.000000 )  
               b(3) = (  0.000000  0.000000  1.252652 )  


     PseudoPot. # 1 for Gd read from file:
     /home/shaharpit/MeamGdH/dft/qe_potentials/Gd.rel-pbe-spdn-kjpaw_psl.1.0.0.UPF
     MD5 check sum: cf50ec46d1536b4a0251694df1946a53
     Pseudo is Projector augmented-wave + core cor, Zval = 11.0
     Generated using "atomic" code by A. Dal Corso  v.6.2.2
     Shape of augmentation charge: PSQ
     Using radial grid of 1263 points, 10 beta functions with: 
                l(1) =   0
                l(2) =   0
                l(3) =   1
                l(4) =   1
                l(5) =   1
                l(6) =   1
                l(7) =   2
                l(8) =   2
                l(9) =   2
               l(10) =   2
     Q(r) pseudized with 0 coefficients 


     PseudoPot. # 2 for  H read from file:
     /home/shaharpit/MeamGdH/dft/qe_potentials/H.pbe-kjpaw_psl.0.1.UPF
     MD5 check sum: fbb168fef676c0aaadbafd73f5b1efa8
     Pseudo is Projector augmented-wave, Zval =  1.0
     Generated using "atomic" code by A. Dal Corso  v.5.0.2 svn rev. 9415
     Shape of augmentation charge: PSQ
     Using radial grid of  929 points,  2 beta functions with: 
                l(1) =   0
                l(2) =   0
     Q(r) pseudized with 0 coefficients 


     atomic species   valence    mass     pseudopotential
        Gd            11.00   157.25000     Gd( 1.00)
        H              1.00     1.00794      H( 1.00)

     No symmetry found



   Cartesian axes

     site n.     atom                  positions (alat units)
         1           Gd  tau(   1) = (   0.2499750   0.1443214   0.5987297  )
         2           Gd  tau(   2) = (   0.7499750   0.1443214   0.5987297  )
         3           Gd  tau(   3) = (   0.0000250   0.2886861   0.1995766  )
         4           Gd  tau(   4) = (   0.5000250   0.2886861   0.1995766  )
         5           H   tau(   5) = (   0.2603500   0.1351850   0.7733990  )
         6           H   tau(   6) = (   0.7141750   0.1153965   0.7679706  )
         7           H   tau(   7) = (   0.7241000   0.3952493   0.4070563  )
         8           H   tau(   8) = (   0.2676250   0.4208401   0.3987539  )
         9           H   tau(   9) = (  -0.0020500   0.4258196   0.2957724  )
        10           H   tau(  10) = (   0.7594250   0.0214339   0.2383742  )
        11           H   tau(  11) = (  -0.0314500   0.1687863   0.6524557  )
        12           H   tau(  12) = (   0.5425750   0.1586973   0.6760057  )
        13           H   tau(  13) = (   0.7480250   0.3541569   0.0562806  )
        14           H   tau(  14) = (   0.2942750   0.3585736   0.0582764  )

     number of k points=    36  gaussian smearing, width (Ry)=  0.0100
                       cart. coord. in units 2pi/alat
        k(    1) = (   0.0000000   0.0000000   0.0000000), wk =   0.0156250
        k(    2) = (   0.0000000   0.0000000   0.3131630), wk =   0.0312500
        k(    3) = (   0.0000000   0.0000000  -0.6263261), wk =   0.0156250
        k(    4) = (   0.0000000   0.5773571   0.0000000), wk =   0.0312500
        k(    5) = (   0.0000000   0.5773571   0.3131630), wk =   0.0312500
        k(    6) = (   0.0000000   0.5773571  -0.6263261), wk =   0.0312500
        k(    7) = (   0.0000000  -1.1547142   0.0000000), wk =   0.0156250
        k(    8) = (   0.0000000  -1.1547142   0.3131630), wk =   0.0312500
        k(    9) = (   0.0000000  -1.1547142  -0.6263261), wk =   0.0156250
        k(   10) = (   0.2500000   0.1443393   0.0000000), wk =   0.0312500
        k(   11) = (   0.2500000   0.1443393   0.3131630), wk =   0.0312500
        k(   12) = (   0.2500000   0.1443393  -0.6263261), wk =   0.0312500
        k(   13) = (   0.2500000   0.7216964   0.0000000), wk =   0.0312500
        k(   14) = (   0.2500000   0.7216964   0.3131630), wk =   0.0312500
        k(   15) = (   0.2500000   0.7216964  -0.6263261), wk =   0.0312500
        k(   16) = (   0.2500000  -1.0103750   0.0000000), wk =   0.0312500
        k(   17) = (   0.2500000  -1.0103750   0.3131630), wk =   0.0312500
        k(   18) = (   0.2500000  -1.0103750  -0.6263261), wk =   0.0312500
        k(   19) = (   0.2500000  -0.4330178   0.0000000), wk =   0.0312500
        k(   20) = (   0.2500000  -0.4330178   0.3131630), wk =   0.0312500
        k(   21) = (   0.2500000  -0.4330178  -0.6263261), wk =   0.0312500
        k(   22) = (  -0.5000000  -0.2886786   0.0000000), wk =   0.0156250
        k(   23) = (  -0.5000000  -0.2886786   0.3131630), wk =   0.0312500
        k(   24) = (  -0.5000000  -0.2886786  -0.6263261), wk =   0.0156250
        k(   25) = (  -0.5000000   0.2886786   0.0000000), wk =   0.0312500
        k(   26) = (  -0.5000000   0.2886786   0.3131630), wk =   0.0312500
        k(   27) = (  -0.5000000   0.2886786  -0.6263261), wk =   0.0312500
        k(   28) = (  -0.5000000  -1.4433928   0.0000000), wk =   0.0156250
        k(   29) = (  -0.5000000  -1.4433928   0.3131630), wk =   0.0312500
        k(   30) = (  -0.5000000  -1.4433928  -0.6263261), wk =   0.0156250
        k(   31) = (   0.0000000  -0.5773571   0.3131630), wk =   0.0312500
        k(   32) = (  -0.2500000  -0.1443393   0.3131630), wk =   0.0312500
        k(   33) = (  -0.2500000  -0.7216964   0.3131630), wk =   0.0312500
        k(   34) = (  -0.2500000   1.0103750   0.3131630), wk =   0.0312500
        k(   35) = (  -0.2500000   0.4330178   0.3131630), wk =   0.0312500
        k(   36) = (   0.5000000  -0.2886786   0.3131630), wk =   0.0312500

     Dense  grid:    37769 G-vectors     FFT dimensions: (  60,  30,  48)

     Estimated max dynamical RAM per process >     125.62MB

     Estimated total allocated dynamical RAM >     502.49MB

     Initial potential from superposition of free atoms

     starting charge   53.92372, renormalised to   54.00000
     Starting wfc are  124 randomized atomic wfcs
     Checking if some PAW data can be deallocated... 

     total cpu time spent up to now is       11.0 secs

     per-process dynamical memory:   153.8 Mb

     Self-consistent Calculation

     iteration #  1     ecut=    50.00 Ry     beta=0.70
     Davidson diagonalization with overlap
     ethr =  1.00E-02,  avg # of iterations =  2.0

     total cpu time spent up to now is       28.1 secs

     total energy              =   -2247.87926903 Ry
     Harris-Foulkes estimate   =   -2248.49613692 Ry
     estimated scf accuracy    <       1.07957573 Ry

     iteration #  2     ecut=    50.00 Ry     beta=0.70
     Davidson diagonalization with overlap
     ethr =  2.00E-03,  avg # of iterations =  3.5

     total cpu time spent up to now is       46.3 secs

     total energy              =   -2247.71328035 Ry
     Harris-Foulkes estimate   =   -2248.36558187 Ry
     estimated scf accuracy    <       1.27589615 Ry

     iteration #  3     ecut=    50.00 Ry     beta=0.70
     Davidson diagonalization with overlap
     ethr =  2.00E-03,  avg # of iterations =  3.6

     total cpu time spent up to now is       62.8 secs

     total energy              =   -2248.03889793 Ry
     Harris-Foulkes estimate   =   -2248.28646477 Ry
     estimated scf accuracy    <       0.76789994 Ry

     iteration #  4     ecut=    50.00 Ry     beta=0.70
     Davidson diagonalization with overlap
     ethr =  1.42E-03,  avg # of iterations =  2.7

     total cpu time spent up to now is       77.3 secs

     total energy              =   -2248.13416924 Ry
     Harris-Foulkes estimate   =   -2248.15172366 Ry
     estimated scf accuracy    <       0.04070835 Ry

     iteration #  5     ecut=    50.00 Ry     beta=0.70
     Davidson diagonalization with overlap
     ethr =  7.54E-05,  avg # of iterations =  4.5

     total cpu time spent up to now is       95.1 secs

     total energy              =   -2248.14332581 Ry
     Harris-Foulkes estimate   =   -2248.14561816 Ry
     estimated scf accuracy    <       0.00607385 Ry

     iteration #  6     ecut=    50.00 Ry     beta=0.70
     Davidson diagonalization with overlap
     ethr =  1.12E-05,  avg # of iterations =  4.0

     total cpu time spent up to now is      111.9 secs

     total energy              =   -2248.14430719 Ry
     Harris-Foulkes estimate   =   -2248.14498951 Ry
     estimated scf accuracy    <       0.00172737 Ry

     iteration #  7     ecut=    50.00 Ry     beta=0.70
     Davidson diagonalization with overlap
     ethr =  3.20E-06,  avg # of iterations =  2.8

     total cpu time spent up to now is      128.4 secs

     total energy              =   -2248.14463779 Ry
     Harris-Foulkes estimate   =   -2248.14469354 Ry
     estimated scf accuracy    <       0.00013032 Ry

     iteration #  8     ecut=    50.00 Ry     beta=0.70
     Davidson diagonalization with overlap
     ethr =  2.41E-07,  avg # of iterations =  3.1

     total cpu time spent up to now is      144.7 secs

     total energy              =   -2248.14465873 Ry
     Harris-Foulkes estimate   =   -2248.14468829 Ry
     estimated scf accuracy    <       0.00007327 Ry

     iteration #  9     ecut=    50.00 Ry     beta=0.70
     Davidson diagonalization with overlap
     ethr =  1.36E-07,  avg # of iterations =  2.7

     total cpu time spent up to now is      159.5 secs

     total energy              =   -2248.14467305 Ry
     Harris-Foulkes estimate   =   -2248.14467531 Ry
     estimated scf accuracy    <       0.00000574 Ry

     iteration # 10     ecut=    50.00 Ry     beta=0.70
     Davidson diagonalization with overlap
     ethr =  1.06E-08,  avg # of iterations =  2.3

     total cpu time spent up to now is      174.5 secs

     End of self-consistent calculation

          k = 0.0000 0.0000 0.0000 (  4677 PWs)   bands (ev):

   -31.4930 -31.4930 -31.0789 -31.0789 -31.0188 -31.0188 -30.4268 -30.4268
   -12.7914 -12.7914 -12.4120 -12.4120 -12.2304 -12.2304 -11.8003 -11.8003
    -9.0495  -9.0495  -8.7282  -8.7282  -8.6149  -8.6149  -8.1073  -8.1073
    -7.6895  -7.6895  -7.3633  -7.3633  -7.0781  -7.0781  -6.7162  -6.7162
     4.3256   4.3256   6.7492   6.7492   7.2991   7.2991   7.6528   7.6528
     8.1689   8.1689   9.1536   9.1536   9.7637   9.7637  10.3668  10.3668
    10.7956  10.7956  11.4728  11.4728  12.0871  12.0871  13.0061  13.0061
    13.8854  13.8854  14.0695  14.0695  14.6519  14.6519  15.0455  15.0455

          k = 0.0000 0.0000 0.3132 (  4762 PWs)   bands (ev):

   -31.4894 -31.4894 -31.0778 -31.0777 -31.0218 -31.0218 -30.4294 -30.4293
   -12.7836 -12.7531 -12.4214 -12.3607 -12.2628 -12.2176 -11.8466 -11.8224
    -9.0990  -9.0077  -8.7623  -8.6614  -8.5875  -8.4962  -8.1799  -8.1430
    -7.7430  -7.6420  -7.3717  -7.3240  -7.1780  -7.1129  -6.7276  -6.7214
     4.7826   4.8341   6.6148   6.6656   6.9393   6.9712   7.5322   7.5733
     8.5186   8.5406   8.8358   8.8844   9.6681   9.6926  10.2715  10.4890
    10.5730  10.8536  11.5529  11.5896  12.1746  12.2260  13.1412  13.1679
    13.5539  13.6513  13.7623  13.8226  14.5645  14.6007  14.8061  14.8673

          k = 0.0000 0.0000-0.6263 (  4752 PWs)   bands (ev):

   -31.4857 -31.4857 -31.0766 -31.0766 -31.0248 -31.0248 -30.4319 -30.4319
   -12.7478 -12.7478 -12.3702 -12.3702 -12.2423 -12.2423 -11.8737 -11.8737
    -9.0734  -9.0734  -8.6635  -8.6635  -8.4516  -8.4516  -8.2505  -8.2505
    -7.7032  -7.7032  -7.3300  -7.3300  -7.2052  -7.2052  -6.7320  -6.7320
     5.7808   5.7808   6.0809   6.0809   6.9377   6.9377   7.1340   7.1340
     8.0647   8.0647   9.5057   9.5057   9.7975   9.7975  10.0361  10.0361
    10.6843  10.6843  11.5230  11.5230  12.3611  12.3611  13.3706  13.3706
    13.5646  13.5646  13.8687  13.8687  14.1859  14.1859  14.4145  14.4145

          k = 0.0000 0.5774 0.0000 (  4740 PWs)   bands (ev):

   -31.4674 -31.4671 -31.0636 -31.0633 -30.9978 -30.9975 -30.4126 -30.4122
   -12.8147 -12.8051 -12.4447 -12.4214 -12.3069 -12.2920 -11.8761 -11.8646
    -9.1041  -9.0610  -8.8247  -8.7331  -8.6851  -8.5332  -8.3122  -8.2690
    -7.7700  -7.7271  -7.4569  -7.4291  -7.2527  -7.1910  -7.0387  -6.9926
     5.4541   5.5177   6.9567   6.9764   7.2254   7.3433   7.5187   7.6608
     8.1568   8.3232   8.9880   9.1125   9.1778   9.3265   9.7557  10.0885
    10.5612  10.8564  11.5590  11.6843  12.5604  12.6060  12.9197  12.9441
    13.7975  13.8815  14.0728  14.1828  14.4840  14.6246  15.0445  15.1067

          k = 0.0000 0.5774 0.3132 (  4725 PWs)   bands (ev):

   -31.4653 -31.4650 -31.0610 -31.0607 -31.0014 -31.0011 -30.4141 -30.4137
   -12.8003 -12.7738 -12.4504 -12.3982 -12.3423 -12.3053 -11.8915 -11.8876
    -9.1263  -9.0489  -8.8415  -8.7070  -8.6170  -8.5119  -8.3325  -8.2970
    -7.8134  -7.7142  -7.4744  -7.3952  -7.2763  -7.1993  -7.0140  -6.9756
     5.7736   5.8165   6.9055   6.9312   7.1221   7.2381   7.6006   7.6839
     7.8034   7.8588   9.0330   9.2084   9.5086   9.6092   9.8901  10.0877
    10.5093  10.7491  11.1125  11.1616  12.4698  12.5449  13.0950  13.1393
    13.7537  13.8454  14.1418  14.1782  14.8128  14.9233  15.1929  15.3216

          k = 0.0000 0.5774-0.6263 (  4722 PWs)   bands (ev):

   -31.4636 -31.4633 -31.0573 -31.0570 -31.0056 -31.0054 -30.4155 -30.4151
   -12.8047 -12.7793 -12.4311 -12.4187 -12.3334 -12.3256 -11.8916 -11.8860
    -9.1644  -9.0360  -8.7985  -8.7495  -8.5456  -8.4908  -8.3351  -8.2625
    -7.8418  -7.7142  -7.4750  -7.3934  -7.3350  -7.2394  -6.9790  -6.9424
     6.0440   6.1330   6.6037   6.6528   7.0799   7.1898   7.5364   7.6099
     7.9177   7.9884   9.1156   9.2203   9.3654   9.4557  10.0182  10.1506
    10.3841  10.5678  11.3235  11.4804  12.5749  12.6602  12.9405  12.9896
    13.9030  14.0069  14.3001  14.3237  14.5823  14.6074  14.8861  14.9061

          k = 0.0000-1.1547 0.0000 (  4688 PWs)   bands (ev):

   -31.4435 -31.4435 -31.0468 -31.0468 -30.9757 -30.9757 -30.3971 -30.3971
   -12.8633 -12.8633 -12.4983 -12.4983 -12.3581 -12.3581 -11.9197 -11.9197
    -9.1169  -9.1169  -8.8507  -8.8507  -8.6744  -8.6744  -8.4190  -8.4190
    -7.7565  -7.7565  -7.4972  -7.4972  -7.3307  -7.3307  -7.1731  -7.1731
     6.0478   6.0478   7.0710   7.0710   7.2240   7.2240   7.5346   7.5346
     7.7441   7.7441   8.1377   8.1377   9.2701   9.2701  10.1250  10.1250
    10.8168  10.8168  11.8518  11.8518  12.1473  12.1473  13.3391  13.3391
    13.7241  13.7241  13.8794  13.8794  15.4928  15.4928  16.2650  16.2650

          k = 0.0000-1.1547 0.3132 (  4724 PWs)   bands (ev):

   -31.4432 -31.4432 -31.0430 -31.0429 -30.9796 -30.9795 -30.3973 -30.3973
   -12.8819 -12.8765 -12.5129 -12.4865 -12.3816 -12.3540 -11.9205 -11.9125
    -9.1511  -9.0918  -8.9271  -8.8392  -8.6967  -8.6081  -8.4043  -8.3380
    -7.7958  -7.7280  -7.5622  -7.4516  -7.3954  -7.2628  -7.1777  -7.0748
     6.0913   6.1004   6.5344   6.5538   6.8364   6.8738   7.4391   7.4860
     8.1820   8.3793   8.8227   8.8706   9.0156   9.1403  10.1260  10.2150
    10.9597  11.0870  11.5007  11.6086  12.2031  12.2982  13.2387  13.3301
    13.4805  13.5302  13.8942  13.9683  15.5147  15.5502  16.0709  16.1461

          k = 0.0000-1.1547-0.6263 (  4728 PWs)   bands (ev):

   -31.4430 -31.4430 -31.0386 -31.0386 -30.9839 -30.9839 -30.3975 -30.3975
   -12.8944 -12.8944 -12.5057 -12.5057 -12.3726 -12.3726 -11.9142 -11.9142
    -9.1291  -9.1291  -8.9223  -8.9223  -8.6171  -8.6171  -8.3268  -8.3268
    -7.7716  -7.7716  -7.5374  -7.5374  -7.3100  -7.3100  -7.0719  -7.0719
     6.0746   6.0746   6.4066   6.4066   6.7539   6.7539   7.2329   7.2329
     8.0062   8.0062   9.4811   9.4811   9.7020   9.7020  10.3644  10.3644
    10.6820  10.6820  11.1801  11.1801  12.3326  12.3326  13.3012  13.3012
    13.8761  13.8761  14.2671  14.2671  15.0389  15.0389  15.2917  15.2917

          k = 0.2500 0.1443 0.0000 (  4728 PWs)   bands (ev):

   -31.4910 -31.4909 -31.0792 -31.0792 -31.0197 -31.0197 -30.4281 -30.4281
   -12.7876 -12.7831 -12.4014 -12.3860 -12.2310 -12.2182 -11.8172 -11.8155
    -9.0541  -9.0129  -8.7352  -8.6768  -8.6353  -8.5118  -8.2097  -8.1322
    -7.6664  -7.6320  -7.3564  -7.3364  -7.1598  -7.1407  -6.8108  -6.7852
     4.7043   4.7836   6.8472   7.0005   7.1646   7.2285   7.6168   7.6458
     8.3718   8.5438   8.9639   9.0434   9.5082   9.6003   9.9374  10.0608
    10.8317  10.9677  11.4052  11.4467  12.1479  12.2133  12.9940  13.0370
    13.6836  13.7076  14.0236  14.0985  14.3242  14.3874  14.6564  14.7229

          k = 0.2500 0.1443 0.3132 (  4740 PWs)   bands (ev):

   -31.4875 -31.4875 -31.0775 -31.0774 -31.0231 -31.0230 -30.4308 -30.4308
   -12.7744 -12.7458 -12.4005 -12.3359 -12.2710 -12.2189 -11.8601 -11.8345
    -9.0653  -8.9756  -8.7562  -8.6392  -8.5470  -8.4771  -8.2347  -8.1934
    -7.7267  -7.6254  -7.3713  -7.3200  -7.2223  -7.1326  -6.8272  -6.7955
     5.1678   5.2516   6.7426   6.8579   7.0453   7.1030   7.4888   7.5626
     8.2968   8.3957   8.8790   8.9598   9.5653   9.6624   9.9756  10.0766
    10.8607  11.0858  11.2724  11.3204  12.2088  12.2762  13.2571  13.3247
    13.3728  13.4357  13.5644  13.6144  14.3790  14.4191  14.7260  14.8143

          k = 0.2500 0.1443-0.6263 (  4760 PWs)   bands (ev):

   -31.4841 -31.4840 -31.0753 -31.0752 -31.0268 -31.0267 -30.4335 -30.4334
   -12.7310 -12.7270 -12.3698 -12.3655 -12.2509 -12.2439 -11.8790 -11.8746
    -9.0320  -9.0065  -8.6752  -8.6520  -8.4977  -8.4223  -8.2925  -8.2349
    -7.7049  -7.6649  -7.3927  -7.3517  -7.2232  -7.1909  -6.8210  -6.7991
     6.0534   6.1237   6.3693   6.4085   6.9134   6.9755   7.1209   7.1808
     8.0327   8.1206   9.4190   9.4595   9.5355   9.7925   9.9507   9.9594
    10.4876  10.7526  11.3522  11.4415  12.4401  12.5135  13.2175  13.2457
    13.4146  13.5067  13.7079  13.7702  13.8703  13.9335  14.3809  14.4265

          k = 0.2500 0.7217 0.0000 (  4726 PWs)   bands (ev):

   -31.4665 -31.4661 -31.0631 -31.0628 -30.9986 -30.9984 -30.4135 -30.4131
   -12.8189 -12.8095 -12.4438 -12.4225 -12.2884 -12.2815 -11.8846 -11.8727
    -9.0853  -9.0569  -8.7953  -8.7384  -8.6238  -8.5234  -8.3573  -8.3270
    -7.6978  -7.6739  -7.4507  -7.3916  -7.3182  -7.2758  -7.1016  -7.0127
     6.0773   6.1177   6.5877   6.7812   7.3232   7.3615   7.6722   7.6944
     7.9372   8.0298   8.8701   8.9639   9.0405   9.1388   9.6942   9.9379
    10.6838  10.8262  11.4162  11.4950  12.6270  12.6633  12.9866  13.0191
    13.5542  13.5953  13.8524  13.9586  14.3949  14.5570  14.8913  14.9776

          k = 0.2500 0.7217 0.3132 (  4734 PWs)   bands (ev):

   -31.4644 -31.4641 -31.0602 -31.0599 -31.0023 -31.0020 -30.4151 -30.4147
   -12.8022 -12.7788 -12.4513 -12.4093 -12.3237 -12.2939 -11.8982 -11.8898
    -9.0706  -9.0326  -8.8390  -8.7374  -8.5839  -8.5285  -8.3697  -8.2877
    -7.7306  -7.6858  -7.4958  -7.4160  -7.2994  -7.2330  -7.0741  -7.0021
     6.2419   6.2552   6.7340   6.8453   7.1088   7.1737   7.5122   7.5776
     7.8176   7.8949   9.0480   9.1552   9.3213   9.4942   9.8808   9.9901
    10.5097  10.6019  11.1666  11.2877  12.5028  12.5343  13.0589  13.0966
    13.6156  13.6268  13.8531  13.8711  14.5602  14.6589  14.9762  15.0511

          k = 0.2500 0.7217-0.6263 (  4756 PWs)   bands (ev):

   -31.4629 -31.4626 -31.0564 -31.0561 -31.0065 -31.0062 -30.4166 -30.4162
   -12.8103 -12.7882 -12.4251 -12.4074 -12.3286 -12.3237 -11.8966 -11.8903
    -9.0687  -9.0095  -8.8677  -8.7702  -8.5384  -8.4861  -8.3450  -8.2445
    -7.7535  -7.7116  -7.5284  -7.4807  -7.2599  -7.2389  -7.0688  -6.9669
     6.3528   6.4434   6.7339   6.7532   6.9725   7.0277   7.2393   7.3442
     8.0386   8.1489   9.1560   9.2400   9.4057   9.6769   9.7926   9.8285
    10.6927  10.8877  11.1603  11.2119  12.5765  12.6369  12.8404  12.8881
    13.6133  13.7204  14.0802  14.1169  14.3181  14.3384  14.4557  14.5433

          k = 0.2500-1.0104 0.0000 (  4738 PWs)   bands (ev):

   -31.4435 -31.4435 -31.0470 -31.0470 -30.9754 -30.9754 -30.3972 -30.3972
   -12.8587 -12.8537 -12.5022 -12.4973 -12.3545 -12.3499 -11.9173 -11.9161
    -9.1171  -9.1052  -8.8509  -8.8157  -8.6908  -8.6331  -8.4119  -8.3999
    -7.7705  -7.7362  -7.5454  -7.5192  -7.3823  -7.3633  -7.2372  -7.1963
     6.3575   6.4086   7.1635   7.1708   7.3522   7.3804   7.5851   7.6388
     7.7510   7.7928   8.2128   8.3600   9.1947   9.2027   9.8168   9.9722
    10.5705  10.5963  11.6829  11.6985  12.3383  12.3921  13.2747  13.3215
    13.6559  13.7263  13.8337  13.8769  14.9654  15.0263  15.8084  15.8902

          k = 0.2500-1.0104 0.3132 (  4718 PWs)   bands (ev):

   -31.4432 -31.4432 -31.0431 -31.0431 -30.9794 -30.9793 -30.3974 -30.3974
   -12.8784 -12.8652 -12.5085 -12.4903 -12.3724 -12.3530 -11.9179 -11.9095
    -9.1345  -9.0945  -8.9139  -8.8311  -8.6853  -8.5895  -8.3936  -8.3169
    -7.8127  -7.7194  -7.5764  -7.5171  -7.4547  -7.2984  -7.2024  -7.1062
     6.3948   6.4267   6.7724   6.8160   6.9761   7.0271   7.4784   7.5853
     8.1081   8.3113   8.8383   9.0028   9.0517   9.2126   9.9232  10.0960
    10.4394  10.5936  11.3133  11.4941  12.2904  12.3286  12.9860  13.0906
    13.5379  13.6413  14.1269  14.1472  15.0971  15.1719  15.5309  15.5803

          k = 0.2500-1.0104-0.6263 (  4708 PWs)   bands (ev):

   -31.4430 -31.4430 -31.0386 -31.0385 -30.9839 -30.9839 -30.3976 -30.3976
   -12.8892 -12.8797 -12.5183 -12.4973 -12.3709 -12.3614 -11.9135 -11.9113
    -9.1447  -9.1047  -8.9132  -8.8827  -8.6401  -8.5959  -8.3297  -8.2848
    -7.8330  -7.7311  -7.6012  -7.5334  -7.3953  -7.3538  -7.0963  -7.0792
     6.3810   6.4440   6.6498   6.6870   6.9022   6.9704   7.3495   7.4249
     8.0286   8.1078   9.2810   9.3566   9.5265   9.7079   9.9325  10.1125
    10.3544  10.4142  10.9875  11.1025  12.3709  12.4786  12.8031  12.9022
    13.6515  13.7210  14.2211  14.3019  14.6797  14.7082  15.1695  15.2868

          k = 0.2500-0.4330 0.0000 (  4737 PWs)   bands (ev):

   -31.4686 -31.4683 -31.0631 -31.0629 -30.9973 -30.9970 -30.4122 -30.4119
   -12.8229 -12.8094 -12.4550 -12.4419 -12.2913 -12.2746 -11.8690 -11.8565
    -9.0989  -9.0698  -8.7934  -8.7526  -8.6337  -8.5572  -8.3092  -8.2385
    -7.7733  -7.7074  -7.5469  -7.4777  -7.2615  -7.2214  -7.0071  -6.9658
     5.3416   5.4251   7.0829   7.1233   7.3292   7.3833   7.7937   7.9701
     8.3817   8.5109   8.7462   8.8753   9.1396   9.2277   9.8074  10.0910
    10.3722  10.5759  11.5348  11.6558  12.6114  12.6988  12.7771  12.8015
    13.9045  13.9791  14.1102  14.1354  14.5062  14.5690  14.8788  14.9274

          k = 0.2500-0.4330 0.3132 (  4739 PWs)   bands (ev):

   -31.4669 -31.4665 -31.0603 -31.0600 -31.0009 -31.0007 -30.4135 -30.4131
   -12.8370 -12.8083 -12.4543 -12.4234 -12.3088 -12.2774 -11.8747 -11.8567
    -9.1544  -9.0486  -8.7953  -8.7056  -8.6082  -8.5230  -8.3166  -8.2027
    -7.8398  -7.6958  -7.5204  -7.4376  -7.3625  -7.2511  -6.9870  -6.9303
     5.5613   5.6779   7.1605   7.2628   7.4129   7.4674   7.6143   7.7203
     8.1554   8.2446   8.5612   8.7208   9.0603   9.1523   9.8686  10.1316
    10.5341  10.7255  11.5588  11.7194  12.6237  12.6698  12.8499  12.8991
    13.8193  13.9165  13.9565  13.9954  14.2808  14.3407  14.9603  15.0477

          k = 0.2500-0.4330-0.6263 (  4718 PWs)   bands (ev):

   -31.4646 -31.4643 -31.0578 -31.0575 -31.0046 -31.0043 -30.4150 -30.4146
   -12.8265 -12.7885 -12.4196 -12.4017 -12.3355 -12.3148 -11.8909 -11.8858
    -9.1772  -9.0373  -8.7497  -8.7104  -8.5787  -8.5065  -8.3349  -8.2351
    -7.8599  -7.6773  -7.5126  -7.4585  -7.3663  -7.2623  -6.9516  -6.9295
     6.2329   6.3366   6.7157   6.7822   7.2768   7.3849   7.6263   7.6673
     7.9783   7.9950   8.6461   8.7875   9.2889   9.3552   9.7931   9.9867
    10.4522  10.6028  11.2318  11.3750  12.3441  12.4521  13.0825  13.1162
    13.8595  13.9109  14.1346  14.1771  14.2494  14.3082  14.5723  14.6744

          k =-0.5000-0.2887 0.0000 (  4734 PWs)   bands (ev):

   -31.4888 -31.4888 -31.0797 -31.0797 -31.0206 -31.0206 -30.4294 -30.4294
   -12.7793 -12.7793 -12.3752 -12.3752 -12.2177 -12.2177 -11.8336 -11.8336
    -9.0208  -9.0208  -8.7042  -8.7042  -8.4810  -8.4810  -8.2644  -8.2644
    -7.5810  -7.5810  -7.3356  -7.3356  -7.2402  -7.2402  -6.8805  -6.8805
     5.5493   5.5493   6.0892   6.0892   7.7498   7.7498   8.0795   8.0795
     8.4848   8.4848   8.8293   8.8293   9.0851   9.0851   9.6700   9.6700
    10.9743  10.9743  11.3262  11.3262  12.4222  12.4222  12.9354  12.9354
    13.6896  13.6896  13.8177  13.8177  14.2862  14.2862  14.4426  14.4426

          k =-0.5000-0.2887 0.3132 (  4726 PWs)   bands (ev):

   -31.4856 -31.4856 -31.0769 -31.0768 -31.0246 -31.0245 -30.4323 -30.4322
   -12.7590 -12.7338 -12.3876 -12.3375 -12.2641 -12.2191 -11.8709 -11.8411
    -9.0130  -8.9523  -8.7366  -8.6642  -8.4937  -8.4241  -8.3425  -8.2177
    -7.6311  -7.6018  -7.4344  -7.3677  -7.2175  -7.1773  -6.9264  -6.8584
     5.8093   5.8744   6.3184   6.3657   7.4049   7.5610   7.7840   7.8774
     8.1713   8.3275   8.8820   8.8955   9.2115   9.2542   9.7745   9.8278
    10.8127  10.9154  11.2795  11.3989  12.4500  12.5136  12.9571  12.9991
    13.3877  13.4925  13.8212  13.8846  14.1389  14.2128  14.3052  14.3914

          k =-0.5000-0.2887-0.6263 (  4748 PWs)   bands (ev):

   -31.4824 -31.4824 -31.0739 -31.0739 -31.0286 -31.0286 -30.4351 -30.4351
   -12.7087 -12.7087 -12.3686 -12.3686 -12.2501 -12.2501 -11.8800 -11.8800
    -8.9467  -8.9467  -8.6944  -8.6944  -8.4638  -8.4638  -8.2676  -8.2676
    -7.6484  -7.6484  -7.4542  -7.4542  -7.1752  -7.1752  -6.9007  -6.9007
     6.4607   6.4607   6.7644   6.7644   6.9383   6.9383   7.1677   7.1677
     8.2403   8.2403   8.9991   8.9991   9.4046   9.4046   9.8449   9.8449
    10.9023  10.9023  11.1381  11.1381  12.6682  12.6682  12.9920  12.9920
    13.3655  13.3655  13.5990  13.5990  13.8529  13.8529  14.3335  14.3335

          k =-0.5000 0.2887 0.0000 (  4740 PWs)   bands (ev):

   -31.4677 -31.4673 -31.0626 -31.0623 -30.9981 -30.9979 -30.4131 -30.4127
   -12.8271 -12.8137 -12.4550 -12.4394 -12.2756 -12.2643 -11.8773 -11.8647
    -9.0821  -9.0581  -8.7754  -8.7415  -8.5888  -8.5388  -8.3784  -8.2728
    -7.7044  -7.6366  -7.5213  -7.4780  -7.3523  -7.3101  -7.0356  -6.9891
     5.7109   5.8472   7.1334   7.2123   7.3766   7.4354   7.9043   7.9545
     8.2220   8.2609   8.5931   8.7159   8.9298   8.9861   9.6100   9.7586
    10.5118  10.6029  11.4880  11.5616  12.6559  12.7010  12.9061  13.0007
    13.5730  13.6772  13.8585  13.9090  14.2508  14.3918  14.7045  14.8279

          k =-0.5000 0.2887 0.3132 (  4725 PWs)   bands (ev):

   -31.4655 -31.4652 -31.0601 -31.0599 -31.0016 -31.0013 -30.4147 -30.4143
   -12.8161 -12.7895 -12.4526 -12.4078 -12.3160 -12.2794 -11.8959 -11.8836
    -9.0748  -9.0292  -8.8093  -8.7334  -8.6038  -8.5134  -8.3540  -8.2719
    -7.7372  -7.6374  -7.5248  -7.4913  -7.3768  -7.2846  -7.0121  -6.9706
     6.0382   6.1220   7.0615   7.1347   7.2553   7.3227   7.6530   7.7382
     8.1520   8.2074   8.7403   8.8980   9.1928   9.2220   9.7020   9.8723
    10.1770  10.3144  11.2414  11.3190  12.5582  12.6098  12.9956  13.0457
    13.5803  13.6549  13.7615  13.8460  14.3031  14.3517  15.1652  15.2062

          k =-0.5000 0.2887-0.6263 (  4722 PWs)   bands (ev):

   -31.4638 -31.4635 -31.0569 -31.0566 -31.0054 -31.0052 -30.4160 -30.4157
   -12.8314 -12.7972 -12.4096 -12.3942 -12.3325 -12.3119 -11.8959 -11.8900
    -9.0946  -9.0125  -8.8086  -8.7322  -8.5573  -8.5142  -8.3392  -8.2152
    -7.7780  -7.6582  -7.5618  -7.5369  -7.3516  -7.2603  -7.0113  -6.9511
     6.5623   6.6414   6.8969   6.9502   7.0008   7.0645   7.4199   7.4419
     8.2369   8.3112   8.7364   8.8743   9.2365   9.3106   9.5905   9.7513
    10.5891  10.6961  11.1158  11.2497  12.4069  12.5202  12.8846  12.9671
    13.5266  13.6410  13.9643  14.0300  14.1191  14.1564  14.3203  14.3959

          k =-0.5000-1.4434 0.0000 (  4746 PWs)   bands (ev):

   -31.4436 -31.4436 -31.0472 -31.0472 -30.9752 -30.9752 -30.3972 -30.3972
   -12.8490 -12.8490 -12.5011 -12.5011 -12.3465 -12.3465 -11.9136 -11.9136
    -9.1052  -9.1052  -8.8229  -8.8229  -8.6390  -8.6390  -8.3949  -8.3949
    -7.7493  -7.7493  -7.5625  -7.5625  -7.4253  -7.4253  -7.2571  -7.2571
     6.8433   6.8433   7.1539   7.1539   7.5328   7.5328   7.6998   7.6998
     7.8307   7.8307   8.6539   8.6539   8.9813   8.9813   9.4510   9.4510
    10.3856  10.3856  11.5187  11.5187  12.9343  12.9343  13.0657  13.0657
    13.5906  13.5906  13.7845  13.7845  14.6017  14.6017  15.2614  15.2614

          k =-0.5000-1.4434 0.3132 (  4724 PWs)   bands (ev):

   -31.4433 -31.4433 -31.0432 -31.0432 -30.9793 -30.9793 -30.3974 -30.3974
   -12.8671 -12.8565 -12.5170 -12.4922 -12.3649 -12.3433 -11.9153 -11.9085
    -9.1386  -9.0833  -8.9026  -8.7889  -8.6674  -8.5937  -8.3975  -8.2852
    -7.8165  -7.7548  -7.5613  -7.5324  -7.5213  -7.3964  -7.2136  -7.1355
     6.7462   6.8419   7.1181   7.1686   7.3504   7.4264   7.5587   7.5973
     7.9051   7.9850   8.6196   8.7693   9.2394   9.4341   9.5181   9.6251
    10.2184  10.3181  11.1419  11.3376  12.6988  12.7222  12.8031  12.8242
    13.5551  13.6327  13.7188  13.7779  14.4987  14.6178  15.2462  15.3093

          k =-0.5000-1.4434-0.6263 (  4696 PWs)   bands (ev):

   -31.4430 -31.4430 -31.0385 -31.0385 -30.9840 -30.9840 -30.3977 -30.3977
   -12.8744 -12.8744 -12.5104 -12.5104 -12.3592 -12.3592 -11.9106 -11.9106
    -9.1224  -9.1224  -8.8716  -8.8716  -8.6171  -8.6171  -8.2873  -8.2873
    -7.8134  -7.8134  -7.5608  -7.5608  -7.4570  -7.4570  -7.1029  -7.1029
     6.7580   6.7580   7.0867   7.0867   7.2295   7.2295   7.5397   7.5397
     8.0445   8.0445   8.9957   8.9957   9.3731   9.3731   9.6332   9.6332
    10.4226  10.4226  10.7713  10.7713  12.4079  12.4079  12.6191  12.6191
    13.9374  13.9374  14.1945  14.1945  14.2436  14.2436  14.3657  14.3657

          k = 0.0000-0.5774 0.3132 (  4725 PWs)   bands (ev):

   -31.4658 -31.4655 -31.0603 -31.0600 -31.0017 -31.0014 -30.4139 -30.4136
   -12.8230 -12.8056 -12.4451 -12.4160 -12.3184 -12.2996 -11.8770 -11.8617
    -9.1386  -9.0480  -8.8296  -8.7551  -8.6036  -8.4947  -8.3015  -8.2501
    -7.8116  -7.7214  -7.4504  -7.4134  -7.3319  -7.2388  -7.0097  -6.9401
     5.5673   5.6503   6.9971   7.0459   7.1789   7.3613   7.4383   7.4725
     8.0386   8.1939   9.0517   9.0664   9.2265   9.2827   9.9439  10.2140
    10.3946  10.6586  11.6788  11.8642  12.7473  12.7885  13.0019  13.0323
    13.7935  13.8871  14.0559  14.1612  14.4188  14.5112  15.0489  15.1108

          k =-0.2500-0.1443 0.3132 (  4740 PWs)   bands (ev):

   -31.4876 -31.4875 -31.0771 -31.0770 -31.0234 -31.0233 -30.4308 -30.4308
   -12.7687 -12.7408 -12.4105 -12.3594 -12.2584 -12.2172 -11.8568 -11.8287
    -9.0568  -8.9804  -8.7289  -8.6831  -8.5778  -8.4591  -8.2520  -8.1530
    -7.6794  -7.6346  -7.3805  -7.3182  -7.2351  -7.1760  -6.8162  -6.7768
     5.1057   5.2011   6.7872   6.8830   6.9927   7.0954   7.4912   7.5545
     8.4575   8.5032   8.8968   9.0227   9.5047   9.5943   9.9723  10.1389
    10.5600  10.7416  11.5425  11.6185  12.5048  12.5422  12.7774  12.8201
    13.4477  13.5041  13.8899  13.9607  14.2611  14.2904  14.7178  14.7604

          k =-0.2500-0.7217 0.3132 (  4734 PWs)   bands (ev):

   -31.4649 -31.4646 -31.0598 -31.0594 -31.0024 -31.0022 -30.4149 -30.4145
   -12.8295 -12.8147 -12.4377 -12.4036 -12.3155 -12.2878 -11.8869 -11.8691
    -9.0826  -9.0364  -8.8488  -8.7422  -8.5780  -8.4879  -8.3330  -8.2809
    -7.7320  -7.6895  -7.5072  -7.4469  -7.3082  -7.2446  -7.0874  -6.9760
     6.0944   6.1676   6.5897   6.7679   7.2658   7.2917   7.5178   7.5572
     8.0169   8.1346   8.9471   9.0421   9.1486   9.2773   9.7058   9.9266
    10.6875  10.8681  11.4395  11.6326  12.7025  12.7408  13.0944  13.1835
    13.4937  13.5724  13.8088  13.8662  14.1911  14.2956  14.6267  14.6959

          k =-0.2500 1.0104 0.3132 (  4718 PWs)   bands (ev):

   -31.4432 -31.4432 -31.0431 -31.0430 -30.9795 -30.9794 -30.3974 -30.3974
   -12.8729 -12.8656 -12.5211 -12.4891 -12.3721 -12.3456 -11.9178 -11.9116
    -9.1559  -9.0797  -8.9155  -8.7849  -8.7037  -8.6081  -8.4049  -8.3063
    -7.8087  -7.7418  -7.5773  -7.4813  -7.4293  -7.3562  -7.1892  -7.1047
     6.3783   6.4435   6.8317   6.8657   7.0282   7.0795   7.5487   7.5894
     8.1297   8.2033   8.6448   8.7645   9.1291   9.1918   9.7483   9.8989
    10.7230  10.8587  11.3388  11.4858  12.4578  12.6150  12.9355  13.0354
    13.4769  13.5700  13.9222  13.9392  14.5886  14.6398  15.9679  16.0370

          k =-0.2500 0.4330 0.3132 (  4739 PWs)   bands (ev):

   -31.4664 -31.4660 -31.0610 -31.0607 -31.0006 -31.0004 -30.4137 -30.4133
   -12.8143 -12.7845 -12.4526 -12.3994 -12.3314 -12.2905 -11.8891 -11.8814
    -9.1293  -9.0479  -8.8147  -8.6930  -8.6302  -8.5068  -8.3197  -8.2840
    -7.8177  -7.6847  -7.5188  -7.4579  -7.3139  -7.2416  -6.9750  -6.9485
     5.7581   5.7853   7.0517   7.0996   7.2284   7.3399   7.7705   7.8638
     7.9814   8.0472   8.7896   9.0184   9.4296   9.4729   9.7168   9.9073
    10.3596  10.5055  11.1251  11.2064  12.3717  12.4449  13.2931  13.3538
    13.7039  13.7686  13.8944  13.9958  14.5850  14.6470  15.3543  15.4523

          k = 0.5000-0.2887 0.3132 (  4725 PWs)   bands (ev):

   -31.4660 -31.4656 -31.0597 -31.0594 -31.0016 -31.0014 -30.4144 -30.4141
   -12.8434 -12.8171 -12.4475 -12.4112 -12.3044 -12.2666 -11.8851 -11.8637
    -9.1059  -9.0334  -8.8108  -8.6899  -8.5755  -8.5287  -8.3539  -8.2217
    -7.7647  -7.6635  -7.5307  -7.4967  -7.3753  -7.2694  -7.0437  -6.9575
     5.9396   6.0934   7.0193   7.0821   7.4235   7.4805   7.6727   7.7273
     8.2144   8.2495   8.5585   8.6124   9.0305   9.1200   9.5514   9.7077
    10.7687  10.9661  11.3852  11.4980  12.5678  12.6353  12.8796  12.9340
    13.5255  13.6014  13.7050  13.7545  14.1599  14.2607  14.6553  14.7341

     the Fermi energy is    12.7684 ev

!    total energy              =   -2248.14467426 Ry
     Harris-Foulkes estimate   =   -2248.14467436 Ry
     estimated scf accuracy    <       0.00000020 Ry

     total all-electron energy =    -90252.488042 Ry

     The total energy is the sum of the following terms:

     one-electron contribution =     -21.62184495 Ry
     hartree contribution      =      40.52358636 Ry
     xc contribution           =    -261.04657893 Ry
     ewald contribution        =    -257.84473852 Ry
     one-center paw contrib.   =   -1748.15275438 Ry
     smearing contrib. (-TS)   =      -0.00234383 Ry

     convergence has been achieved in  10 iterations

     Forces acting on atoms (cartesian axes, Ry/au):

     atom    1 type  1   force =    -0.03281480    0.06778274   -0.93398523
     atom    2 type  1   force =     0.19516008    0.06120435   -1.04033410
     atom    3 type  1   force =     0.03511333   -0.94144527   -0.60478021
     atom    4 type  1   force =     0.00527453   -1.06176672   -0.19423164
     atom    5 type  2   force =     0.05187681   -0.09745960    0.92199468
     atom    6 type  2   force =    -0.16320326   -0.14453714    0.85643819
     atom    7 type  2   force =     0.00872337    0.01178028    0.00322323
     atom    8 type  2   force =    -0.00628990   -0.00735585    0.00971284
     atom    9 type  2   force =    -0.01941367    0.92530923    0.62608741
     atom   10 type  2   force =     0.06209240    1.00436930    0.23962931
     atom   11 type  2   force =     0.21236960    0.07250596    0.09460193
     atom   12 type  2   force =    -0.25827635    0.06504254    0.12563432
     atom   13 type  2   force =     0.00183973    0.01879053   -0.03208143
     atom   14 type  2   force =    -0.09245187    0.02577966   -0.07190930

     Total force =     2.923119     Total SCF correction =     0.001597

     Writing output data file 2402.save
forrtl: Disk quota exceeded
forrtl: severe (28): CLOSE error, unit 10, file "Unknown"
Image              PC                Routine            Line        Source             
pw.x               0000000000B6DF5E  Unknown               Unknown  Unknown
pw.x               0000000000B605F6  Unknown               Unknown  Unknown
pw.x               00000000005FFBCC  buffers_mp_close_         689  buffers.f90
pw.x               00000000006266FF  close_files_               38  close_files.f90
pw.x               0000000000558845  stop_run_                  45  stop_run.f90
pw.x               0000000000406F18  MAIN__                     61  pwscf.f90
pw.x               0000000000406C1E  Unknown               Unknown  Unknown
libc-2.17.so       00007F8490F79555  __libc_start_main     Unknown  Unknown
pw.x               0000000000406B29  Unknown               Unknown  Unknown
Removing 2402 from /home/shaharpit/tmp
