
     Program PWSCF v.6.1 (svn rev. 13369) starts on 30Nov2022 at 13:42:32 

     This program is part of the open-source Quantum ESPRESSO suite
     for quantum simulation of materials; please cite
         "P. Giannozzi et al., J. Phys.:Condens. Matter 21 395502 (2009);
          URL http://www.quantum-espresso.org", 
     in publications or presentations arising from this work. More details at
     http://www.quantum-espresso.org/quote

     Parallel version (MPI), running on     4 processors
     R & G space division:  proc/nbgrp/npool/nimage =       4
     Reading input from ./hcp_75_0.9.in
Warning: card &IONS ignored
Warning: card 	ION_DYNAMICS='BFGS', ignored
Warning: card / ignored
Warning: card &CELL ignored
Warning: card / ignored

     Current dimensions of program PWSCF are:
     Max number of different atomic species (ntypx) = 10
     Max number of k-points (npk) =  40000
     Max angular momentum in pseudopotentials (lmaxx) =  3
               file Gd.rel-pbe-spdn-kjpaw_psl.1.0.0.UPF: wavefunction(s)  5P 5P renormalized
               file H.pbe-kjpaw_psl.0.1.UPF: wavefunction(s)  1S renormalized

     Subspace diagonalization in iterative solution of the eigenvalue problem:
     a serial algorithm will be used

 
     Parallelization info
     --------------------
     sticks:   dense  smooth     PW     G-vecs:    dense   smooth      PW
     Min         298     298     93                 9440     9440    1625
     Max         299     299     94                 9443     9443    1628
     Sum        1195    1195    373                37769    37769    6507
 


     bravais-lattice index     =            0
     lattice parameter (alat)  =      13.1873  a.u.
     unit-cell volume          =     792.7371 (a.u.)^3
     number of atoms/cell      =           10
     number of atomic types    =            2
     number of electrons       =        50.00
     number of Kohn-Sham states=           60
     kinetic-energy cutoff     =      50.0000  Ry
     charge density cutoff     =     200.0000  Ry
     convergence threshold     =      1.0E-06
     mixing beta               =       0.7000
     number of iterations used =            8  plain     mixing
     Exchange-correlation      =  SLA  PW   PBX  PBC ( 1  4  3  4 0 0)
     Non magnetic calculation with spin-orbit


     celldm(1)=  13.187265  celldm(2)=   0.000000  celldm(3)=   0.000000
     celldm(4)=   0.000000  celldm(5)=   0.000000  celldm(6)=   0.000000

     crystal axes: (cart. coord. in units of alat)
               a(1) = (   1.000000   0.000000   0.000000 )  
               a(2) = (  -0.250000   0.433008   0.000000 )  
               a(3) = (   0.000000   0.000000   0.798306 )  

     reciprocal axes: (cart. coord. in units 2 pi/alat)
               b(1) = (  1.000000  0.577357  0.000000 )  
               b(2) = (  0.000000  2.309428  0.000000 )  
               b(3) = (  0.000000  0.000000  1.252652 )  


     PseudoPot. # 1 for Gd read from file:
     /home/shaharpit/MeamGdH/dft/qe_potentials/Gd.rel-pbe-spdn-kjpaw_psl.1.0.0.UPF
     MD5 check sum: cf50ec46d1536b4a0251694df1946a53
     Pseudo is Projector augmented-wave + core cor, Zval = 11.0
     Generated using "atomic" code by A. Dal Corso  v.6.2.2
     Shape of augmentation charge: PSQ
     Using radial grid of 1263 points, 10 beta functions with: 
                l(1) =   0
                l(2) =   0
                l(3) =   1
                l(4) =   1
                l(5) =   1
                l(6) =   1
                l(7) =   2
                l(8) =   2
                l(9) =   2
               l(10) =   2
     Q(r) pseudized with 0 coefficients 


     PseudoPot. # 2 for  H read from file:
     /home/shaharpit/MeamGdH/dft/qe_potentials/H.pbe-kjpaw_psl.0.1.UPF
     MD5 check sum: fbb168fef676c0aaadbafd73f5b1efa8
     Pseudo is Projector augmented-wave, Zval =  1.0
     Generated using "atomic" code by A. Dal Corso  v.5.0.2 svn rev. 9415
     Shape of augmentation charge: PSQ
     Using radial grid of  929 points,  2 beta functions with: 
                l(1) =   0
                l(2) =   0
     Q(r) pseudized with 0 coefficients 


     atomic species   valence    mass     pseudopotential
        Gd            11.00   157.25000     Gd( 1.00)
        H              1.00     1.00794      H( 1.00)

     No symmetry found



   Cartesian axes

     site n.     atom                  positions (alat units)
         1           Gd  tau(   1) = (   0.2499750   0.1443214   0.5987297  )
         2           Gd  tau(   2) = (   0.7499750   0.1443214   0.5987297  )
         3           Gd  tau(   3) = (   0.0000250   0.2886861   0.1995766  )
         4           Gd  tau(   4) = (   0.5000250   0.2886861   0.1995766  )
         5           H   tau(   5) = (   0.2603500   0.1351850   0.7733990  )
         6           H   tau(   6) = (   0.7141750   0.1153965   0.7679706  )
         7           H   tau(   7) = (   0.7241000   0.3952493   0.4070563  )
         8           H   tau(   8) = (   0.2676250   0.4208401   0.3987539  )
         9           H   tau(   9) = (  -0.0020500   0.4258196   0.2957724  )
        10           H   tau(  10) = (   0.7594250   0.0214339   0.2383742  )

     number of k points=    36  gaussian smearing, width (Ry)=  0.0100
                       cart. coord. in units 2pi/alat
        k(    1) = (   0.0000000   0.0000000   0.0000000), wk =   0.0156250
        k(    2) = (   0.0000000   0.0000000   0.3131630), wk =   0.0312500
        k(    3) = (   0.0000000   0.0000000  -0.6263261), wk =   0.0156250
        k(    4) = (   0.0000000   0.5773571   0.0000000), wk =   0.0312500
        k(    5) = (   0.0000000   0.5773571   0.3131630), wk =   0.0312500
        k(    6) = (   0.0000000   0.5773571  -0.6263261), wk =   0.0312500
        k(    7) = (   0.0000000  -1.1547142   0.0000000), wk =   0.0156250
        k(    8) = (   0.0000000  -1.1547142   0.3131630), wk =   0.0312500
        k(    9) = (   0.0000000  -1.1547142  -0.6263261), wk =   0.0156250
        k(   10) = (   0.2500000   0.1443393   0.0000000), wk =   0.0312500
        k(   11) = (   0.2500000   0.1443393   0.3131630), wk =   0.0312500
        k(   12) = (   0.2500000   0.1443393  -0.6263261), wk =   0.0312500
        k(   13) = (   0.2500000   0.7216964   0.0000000), wk =   0.0312500
        k(   14) = (   0.2500000   0.7216964   0.3131630), wk =   0.0312500
        k(   15) = (   0.2500000   0.7216964  -0.6263261), wk =   0.0312500
        k(   16) = (   0.2500000  -1.0103750   0.0000000), wk =   0.0312500
        k(   17) = (   0.2500000  -1.0103750   0.3131630), wk =   0.0312500
        k(   18) = (   0.2500000  -1.0103750  -0.6263261), wk =   0.0312500
        k(   19) = (   0.2500000  -0.4330178   0.0000000), wk =   0.0312500
        k(   20) = (   0.2500000  -0.4330178   0.3131630), wk =   0.0312500
        k(   21) = (   0.2500000  -0.4330178  -0.6263261), wk =   0.0312500
        k(   22) = (  -0.5000000  -0.2886786   0.0000000), wk =   0.0156250
        k(   23) = (  -0.5000000  -0.2886786   0.3131630), wk =   0.0312500
        k(   24) = (  -0.5000000  -0.2886786  -0.6263261), wk =   0.0156250
        k(   25) = (  -0.5000000   0.2886786   0.0000000), wk =   0.0312500
        k(   26) = (  -0.5000000   0.2886786   0.3131630), wk =   0.0312500
        k(   27) = (  -0.5000000   0.2886786  -0.6263261), wk =   0.0312500
        k(   28) = (  -0.5000000  -1.4433928   0.0000000), wk =   0.0156250
        k(   29) = (  -0.5000000  -1.4433928   0.3131630), wk =   0.0312500
        k(   30) = (  -0.5000000  -1.4433928  -0.6263261), wk =   0.0156250
        k(   31) = (   0.0000000  -0.5773571   0.3131630), wk =   0.0312500
        k(   32) = (  -0.2500000  -0.1443393   0.3131630), wk =   0.0312500
        k(   33) = (  -0.2500000  -0.7216964   0.3131630), wk =   0.0312500
        k(   34) = (  -0.2500000   1.0103750   0.3131630), wk =   0.0312500
        k(   35) = (  -0.2500000   0.4330178   0.3131630), wk =   0.0312500
        k(   36) = (   0.5000000  -0.2886786   0.3131630), wk =   0.0312500

     Dense  grid:    37769 G-vectors     FFT dimensions: (  60,  30,  48)

     Estimated max dynamical RAM per process >     118.70MB

     Estimated total allocated dynamical RAM >     474.81MB

     Initial potential from superposition of free atoms

     starting charge   49.92376, renormalised to   50.00000
     Starting wfc are  116 randomized atomic wfcs
     Checking if some PAW data can be deallocated... 

     total cpu time spent up to now is        9.0 secs

     per-process dynamical memory:   154.5 Mb

     Self-consistent Calculation

     iteration #  1     ecut=    50.00 Ry     beta=0.70
     Davidson diagonalization with overlap
     ethr =  1.00E-02,  avg # of iterations =  2.0

     total cpu time spent up to now is       22.2 secs

     total energy              =   -2243.52582731 Ry
     Harris-Foulkes estimate   =   -2243.94132551 Ry
     estimated scf accuracy    <       0.73057495 Ry

     iteration #  2     ecut=    50.00 Ry     beta=0.70
     Davidson diagonalization with overlap
     ethr =  1.46E-03,  avg # of iterations =  2.1

     total cpu time spent up to now is       34.6 secs

     total energy              =   -2243.61156234 Ry
     Harris-Foulkes estimate   =   -2243.70335895 Ry
     estimated scf accuracy    <       0.13986355 Ry

     iteration #  3     ecut=    50.00 Ry     beta=0.70
     Davidson diagonalization with overlap
     ethr =  2.80E-04,  avg # of iterations =  4.1

     total cpu time spent up to now is       49.9 secs

     total energy              =   -2243.60810186 Ry
     Harris-Foulkes estimate   =   -2243.73971590 Ry
     estimated scf accuracy    <       0.42422517 Ry

     iteration #  4     ecut=    50.00 Ry     beta=0.70
     Davidson diagonalization with overlap
     ethr =  2.80E-04,  avg # of iterations =  3.8

     total cpu time spent up to now is       63.9 secs

     total energy              =   -2243.67085624 Ry
     Harris-Foulkes estimate   =   -2243.67721072 Ry
     estimated scf accuracy    <       0.01567895 Ry

     iteration #  5     ecut=    50.00 Ry     beta=0.70
     Davidson diagonalization with overlap
     ethr =  3.14E-05,  avg # of iterations =  3.8

     total cpu time spent up to now is       77.9 secs

     total energy              =   -2243.67314798 Ry
     Harris-Foulkes estimate   =   -2243.67677179 Ry
     estimated scf accuracy    <       0.01114675 Ry

     iteration #  6     ecut=    50.00 Ry     beta=0.70
     Davidson diagonalization with overlap
     ethr =  2.23E-05,  avg # of iterations =  2.9

     total cpu time spent up to now is       90.0 secs

     total energy              =   -2243.67483300 Ry
     Harris-Foulkes estimate   =   -2243.67502945 Ry
     estimated scf accuracy    <       0.00046021 Ry

     iteration #  7     ecut=    50.00 Ry     beta=0.70
     Davidson diagonalization with overlap
     ethr =  9.20E-07,  avg # of iterations =  4.1

     total cpu time spent up to now is      104.1 secs

     total energy              =   -2243.67494369 Ry
     Harris-Foulkes estimate   =   -2243.67496626 Ry
     estimated scf accuracy    <       0.00004516 Ry

     iteration #  8     ecut=    50.00 Ry     beta=0.70
     Davidson diagonalization with overlap
     ethr =  9.03E-08,  avg # of iterations =  3.0

     total cpu time spent up to now is      117.8 secs

     total energy              =   -2243.67495470 Ry
     Harris-Foulkes estimate   =   -2243.67496366 Ry
     estimated scf accuracy    <       0.00002245 Ry

     iteration #  9     ecut=    50.00 Ry     beta=0.70
     Davidson diagonalization with overlap
     ethr =  4.49E-08,  avg # of iterations =  2.0

     total cpu time spent up to now is      129.7 secs

     total energy              =   -2243.67495874 Ry
     Harris-Foulkes estimate   =   -2243.67495930 Ry
     estimated scf accuracy    <       0.00000118 Ry

     iteration # 10     ecut=    50.00 Ry     beta=0.70
     Davidson diagonalization with overlap
     ethr =  2.37E-09,  avg # of iterations =  2.9

     total cpu time spent up to now is      143.4 secs

     End of self-consistent calculation

          k = 0.0000 0.0000 0.0000 (  4677 PWs)   bands (ev):

   -31.9167 -31.9167 -31.6867 -31.6867 -31.4841 -31.4841 -31.2960 -31.2960
   -13.1871 -13.1871 -12.9412 -12.9412 -12.6751 -12.6751 -12.4313 -12.4313
    -9.4279  -9.4279  -9.1649  -9.1649  -8.9463  -8.9463  -8.5594  -8.5594
    -8.0624  -8.0624  -7.7358  -7.7358  -7.5934  -7.5934  -7.2177  -7.2177
     4.9037   4.9037   7.0643   7.0643   7.5997   7.5997   8.2762   8.2762
     9.9261   9.9261  10.3685  10.3685  10.5640  10.5640  11.3414  11.3414
    12.1667  12.1667  12.9161  12.9161  13.2685  13.2685  13.6032  13.6032
    13.7911  13.7911  14.3947  14.3947

          k = 0.0000 0.0000 0.3132 (  4762 PWs)   bands (ev):

   -31.9127 -31.9127 -31.6835 -31.6835 -31.4891 -31.4891 -31.2988 -31.2988
   -13.1850 -13.1569 -12.9057 -12.8971 -12.6937 -12.6821 -12.4846 -12.4640
    -9.4642  -9.3912  -9.1395  -9.0934  -8.9535  -8.8813  -8.6213  -8.5897
    -8.1232  -8.0266  -7.7538  -7.7152  -7.6636  -7.6058  -7.2252  -7.2240
     5.3295   5.3728   6.7300   6.7850   7.8790   7.9742   8.2804   8.3345
     9.5029   9.5965   9.9908  10.0536  10.6179  10.6748  11.1254  11.2140
    12.2488  12.2766  12.7251  12.7328  13.2983  13.3252  13.4156  13.4271
    14.0167  14.0742  14.1599  14.1860

          k = 0.0000 0.0000-0.6263 (  4752 PWs)   bands (ev):

   -31.9087 -31.9087 -31.6801 -31.6801 -31.4944 -31.4944 -31.3016 -31.3016
   -13.1593 -13.1593 -12.8342 -12.8342 -12.7138 -12.7138 -12.5268 -12.5268
    -9.4373  -9.4373  -9.0380  -9.0380  -8.8841  -8.8841  -8.6787  -8.6787
    -8.0935  -8.0935  -7.7548  -7.7548  -7.6452  -7.6452  -7.2311  -7.2311
     6.0124   6.0124   6.6112   6.6112   7.7394   7.7394   8.3288   8.3288
     9.3228   9.3228   9.6546   9.6546  10.4974  10.4974  11.3362  11.3362
    12.4310  12.4310  12.6061  12.6061  13.2918  13.2918  13.6153  13.6153
    13.9329  13.9329  14.0867  14.0867

          k = 0.0000 0.5774 0.0000 (  4740 PWs)   bands (ev):

   -31.8886 -31.8882 -31.6693 -31.6690 -31.4668 -31.4665 -31.2854 -31.2851
   -13.2109 -13.1965 -13.0088 -12.9778 -12.7051 -12.6909 -12.5291 -12.5206
    -9.4733  -9.4313  -9.2672  -9.2331  -8.9740  -8.8803  -8.7543  -8.7265
    -8.1344  -8.0958  -7.8307  -7.8040  -7.7527  -7.7128  -7.4860  -7.4664
     6.0816   6.2201   6.9578   7.0745   7.9845   8.1395   8.4073   8.6025
     9.4965   9.6122   9.9412  10.0142  10.9806  11.0242  11.5114  11.6668
    11.8038  11.8750  12.5194  12.6551  13.1253  13.1712  13.3528  13.3778
    13.6593  13.7423  13.9422  14.0303

          k = 0.0000 0.5774 0.3132 (  4725 PWs)   bands (ev):

   -31.8863 -31.8860 -31.6667 -31.6664 -31.4701 -31.4697 -31.2873 -31.2870
   -13.1986 -13.1666 -12.9978 -12.9662 -12.7336 -12.7089 -12.5541 -12.5360
    -9.4867  -9.4136  -9.2679  -9.1690  -8.9460  -8.9013  -8.7834  -8.7401
    -8.1978  -8.0890  -7.8522  -7.8056  -7.7317  -7.6688  -7.4891  -7.4458
     6.4083   6.4909   6.9182   7.0278   8.1648   8.2428   8.5435   8.6732
     9.0472   9.1862   9.6628   9.7415  10.9199  10.9928  11.3855  11.4287
    11.8317  11.9394  12.2435  12.2757  13.1126  13.2113  13.5857  13.6044
    13.6393  13.7199  13.9732  13.9997

          k = 0.0000 0.5774-0.6263 (  4722 PWs)   bands (ev):

   -31.8845 -31.8842 -31.6640 -31.6637 -31.4729 -31.4726 -31.2892 -31.2889
   -13.2026 -13.1706 -13.0030 -12.9656 -12.7339 -12.7147 -12.5518 -12.5379
    -9.5172  -9.3952  -9.2321  -9.1687  -8.9186  -8.8883  -8.7710  -8.7258
    -8.2354  -8.0919  -7.8688  -7.8231  -7.7739  -7.6417  -7.4593  -7.4419
     6.5174   6.5955   6.8668   6.9752   8.0849   8.1179   8.7596   8.8542
     9.1348   9.2594   9.5928   9.6433  10.6317  10.7161  11.4249  11.5119
    12.0725  12.1237  12.6915  12.7531  12.7983  12.8956  12.9448  12.9690
    13.8143  13.8950  14.2785  14.2939

          k = 0.0000-1.1547 0.0000 (  4688 PWs)   bands (ev):

   -31.8645 -31.8645 -31.6460 -31.6460 -31.4516 -31.4516 -31.2725 -31.2725
   -13.2711 -13.2711 -13.0542 -13.0542 -12.7434 -12.7434 -12.5781 -12.5781
    -9.4908  -9.4908  -9.2928  -9.2928  -9.0413  -9.0413  -8.8740  -8.8740
    -8.1203  -8.1203  -7.9032  -7.9032  -7.7683  -7.7683  -7.6326  -7.6326
     6.8663   6.8663   7.0988   7.0988   7.7072   7.7072   8.2463   8.2463
     9.2672   9.2672   9.5940   9.5940  10.8820  10.8820  11.0433  11.0433
    12.3897  12.3897  12.6834  12.6834  13.1856  13.1856  13.4615  13.4615
    13.6587  13.6587  13.8916  13.8916

          k = 0.0000-1.1547 0.3132 (  4724 PWs)   bands (ev):

   -31.8641 -31.8641 -31.6448 -31.6448 -31.4528 -31.4528 -31.2728 -31.2728
   -13.2901 -13.2853 -13.0724 -13.0510 -12.7533 -12.7372 -12.5788 -12.5687
    -9.5111  -9.4745  -9.3477  -9.2671  -9.0510  -9.0135  -8.8817  -8.8020
    -8.1680  -8.1038  -7.9499  -7.8349  -7.8039  -7.7189  -7.6408  -7.5600
     6.7152   6.7601   6.8474   6.8730   7.8414   7.9447   8.0646   8.1109
     9.3375   9.3979   9.6075   9.7090  10.9358  10.9404  11.2079  11.2295
    12.3740  12.4099  12.6914  12.7625  13.1562  13.1742  13.6768  13.7614
    13.9007  13.9186  14.0969  14.1271

          k = 0.0000-1.1547-0.6263 (  4728 PWs)   bands (ev):

   -31.8637 -31.8637 -31.6436 -31.6436 -31.4540 -31.4540 -31.2732 -31.2732
   -13.3036 -13.3036 -13.0704 -13.0704 -12.7447 -12.7447 -12.5712 -12.5712
    -9.4936  -9.4936  -9.3330  -9.3330  -9.0134  -9.0134  -8.8102  -8.8102
    -8.1496  -8.1496  -7.9170  -7.9170  -7.7221  -7.7221  -7.5665  -7.5665
     6.6776   6.6776   6.7254   6.7254   7.7256   7.7256   8.0657   8.0657
     9.3654   9.3654   9.8033   9.8033  11.1947  11.1947  11.2491  11.2491
    12.4609  12.4609  12.6563  12.6563  13.5522  13.5522  14.1277  14.1277
    14.2502  14.2502  14.7130  14.7130

          k = 0.2500 0.1443 0.0000 (  4728 PWs)   bands (ev):

   -31.9129 -31.9127 -31.6910 -31.6909 -31.4818 -31.4818 -31.2982 -31.2982
   -13.1803 -13.1761 -12.9405 -12.9328 -12.6662 -12.6478 -12.4597 -12.4499
    -9.4239  -9.3887  -9.1860  -9.1516  -8.9535  -8.8599  -8.6479  -8.5746
    -8.0291  -8.0053  -7.7340  -7.7118  -7.6269  -7.6207  -7.3049  -7.2934
     5.1794   5.2693   6.6913   6.8363   7.8084   7.8843   8.3428   8.4546
     9.9379   9.9649  10.3080  10.3591  10.6447  10.6964  11.1889  11.2589
    12.1718  12.2126  12.7778  12.8787  13.2675  13.3612  13.5145  13.6172
    13.8006  13.8825  14.1321  14.2229

          k = 0.2500 0.1443 0.3132 (  4740 PWs)   bands (ev):

   -31.9092 -31.9091 -31.6874 -31.6872 -31.4866 -31.4864 -31.3015 -31.3015
   -13.1689 -13.1479 -12.9034 -12.8959 -12.6803 -12.6679 -12.5103 -12.4783
    -9.4174  -9.3659  -9.1594  -9.1035  -8.9344  -8.8347  -8.6707  -8.6266
    -8.0871  -8.0118  -7.7742  -7.7417  -7.6496  -7.5761  -7.3096  -7.3000
     5.5645   5.6416   6.8929   6.9939   7.5999   7.6501   8.4038   8.4552
     9.5075   9.5869  10.2109  10.3282  10.6271  10.6397  10.9977  11.0723
    12.3374  12.3602  12.7665  12.8122  13.1325  13.1922  13.3395  13.4219
    13.7711  13.8055  14.1410  14.1599

          k = 0.2500 0.1443-0.6263 (  4760 PWs)   bands (ev):

   -31.9056 -31.9055 -31.6834 -31.6833 -31.4915 -31.4914 -31.3049 -31.3048
   -13.1367 -13.1309 -12.8625 -12.8515 -12.7054 -12.7045 -12.5326 -12.5286
    -9.4020  -9.3709  -9.0890  -9.0599  -8.8907  -8.8479  -8.7106  -8.6718
    -8.0726  -8.0513  -7.8258  -7.7930  -7.6170  -7.6058  -7.3029  -7.2982
     6.1487   6.2255   6.5687   6.6317   7.7981   7.8208   8.4452   8.4852
     9.3066   9.3157   9.7365   9.7671  10.6125  10.6776  11.2945  11.3330
    12.4390  12.4526  12.6643  12.6893  13.1672  13.2531  13.4898  13.5574
    13.5930  13.6359  13.8355  13.8950

          k = 0.2500 0.7217 0.0000 (  4726 PWs)   bands (ev):

   -31.8869 -31.8866 -31.6710 -31.6707 -31.4656 -31.4654 -31.2866 -31.2863
   -13.2198 -13.2043 -13.0032 -12.9736 -12.6945 -12.6835 -12.5386 -12.5274
    -9.4513  -9.4314  -9.2410  -9.2241  -8.9610  -8.9187  -8.8051  -8.7274
    -8.0667  -8.0213  -7.8760  -7.7998  -7.7157  -7.6845  -7.5678  -7.5283
     6.4196   6.5736   6.6387   6.7496   8.0668   8.1195   8.3139   8.4603
     9.4214   9.5164   9.9664   9.9953  11.0722  11.1413  11.3010  11.3868
    12.1606  12.2029  12.3240  12.4585  13.1985  13.2720  13.3006  13.3598
    13.4337  13.5205  13.8454  13.9656

          k = 0.2500 0.7217 0.3132 (  4734 PWs)   bands (ev):

   -31.8849 -31.8846 -31.6682 -31.6679 -31.4687 -31.4684 -31.2888 -31.2884
   -13.2040 -13.1778 -12.9979 -12.9606 -12.7268 -12.7051 -12.5609 -12.5349
    -9.4340  -9.4112  -9.2577  -9.1905  -8.9557  -8.9393  -8.7994  -8.7330
    -8.1100  -8.0338  -7.9048  -7.8182  -7.6943  -7.6466  -7.5577  -7.4941
     6.4214   6.5697   6.7663   6.8545   8.1936   8.2618   8.5080   8.6141
     9.1793   9.2924   9.5575   9.5823  11.1455  11.2304  11.5324  11.5937
    11.9292  11.9447  12.3179  12.3829  13.0947  13.1695  13.3693  13.4117
    13.5822  13.6348  13.7887  13.8226

          k = 0.2500 0.7217-0.6263 (  4756 PWs)   bands (ev):

   -31.8833 -31.8830 -31.6653 -31.6651 -31.4714 -31.4710 -31.2908 -31.2905
   -13.2146 -13.1876 -12.9950 -12.9505 -12.7308 -12.7092 -12.5577 -12.5419
    -9.4318  -9.3828  -9.2831  -9.1939  -8.9368  -8.9009  -8.7754  -8.7103
    -8.1478  -8.0658  -7.9214  -7.8805  -7.6716  -7.6251  -7.5518  -7.4637
     6.5872   6.6660   6.7375   6.7621   8.0426   8.0816   8.4411   8.5632
     9.2948   9.4065   9.6861   9.7984  11.1204  11.1608  11.4685  11.5638
    12.2255  12.2924  12.5807  12.6073  12.7185  12.7686  12.9102  12.9654
    13.6724  13.7155  14.3302  14.3650

          k = 0.2500-1.0104 0.0000 (  4738 PWs)   bands (ev):

   -31.8645 -31.8645 -31.6462 -31.6462 -31.4515 -31.4515 -31.2725 -31.2725
   -13.2644 -13.2538 -13.0661 -13.0551 -12.7421 -12.7408 -12.5765 -12.5753
    -9.4947  -9.4758  -9.3157  -9.2916  -9.0290  -9.0105  -8.8632  -8.8566
    -8.1177  -8.1036  -7.9410  -7.9042  -7.8130  -7.7834  -7.6733  -7.6596
     6.9383   6.9610   7.0844   7.1179   7.8188   7.9657   8.2191   8.3650
     9.2556   9.3343   9.5687   9.6447  11.1191  11.1851  11.2764  11.3724
    12.1572  12.2943  12.4771  12.5868  13.2176  13.2650  13.5176  13.5511
    13.6225  13.6863  13.9131  13.9833

          k = 0.2500-1.0104 0.3132 (  4718 PWs)   bands (ev):

   -31.8641 -31.8641 -31.6449 -31.6449 -31.4528 -31.4527 -31.2728 -31.2728
   -13.2860 -13.2661 -13.0774 -13.0550 -12.7508 -12.7375 -12.5753 -12.5682
    -9.5043  -9.4791  -9.3446  -9.2860  -9.0274  -8.9769  -8.8696  -8.8052
    -8.1641  -8.0892  -7.9634  -7.8937  -7.8356  -7.7172  -7.6811  -7.5792
     6.7592   6.7886   6.8757   6.8875   8.0629   8.1079   8.2742   8.4360
     9.1929   9.2689   9.5975   9.7193  11.3478  11.3598  11.6077  11.6413
    12.0248  12.0794  12.2470  12.3556  13.3718  13.4241  13.4660  13.5190
    13.7930  13.8476  14.2700  14.3178

          k = 0.2500-1.0104-0.6263 (  4708 PWs)   bands (ev):

   -31.8637 -31.8637 -31.6436 -31.6436 -31.4540 -31.4540 -31.2732 -31.2732
   -13.2971 -13.2771 -13.0926 -13.0664 -12.7450 -12.7407 -12.5703 -12.5689
    -9.5130  -9.4733  -9.3563  -9.3096  -9.0014  -8.9838  -8.8171  -8.7927
    -8.1744  -8.1078  -7.9763  -7.9178  -7.7843  -7.7521  -7.5822  -7.5600
     6.8067   6.8228   6.8516   6.8842   7.7708   7.8009   8.1373   8.2030
     9.3855   9.4623   9.8526   9.9459  11.2498  11.2746  11.4059  11.4127
    12.3735  12.4128  12.5236  12.5570  13.1409  13.2150  13.4031  13.4339
    14.0518  14.1379  14.4733  14.5427

          k = 0.2500-0.4330 0.0000 (  4737 PWs)   bands (ev):

   -31.8910 -31.8906 -31.6667 -31.6664 -31.4679 -31.4676 -31.2843 -31.2840
   -13.2258 -13.2033 -13.0029 -12.9831 -12.7081 -12.6989 -12.5166 -12.5024
    -9.4806  -9.4485  -9.2468  -9.2313  -8.9597  -8.9200  -8.7416  -8.6778
    -8.1272  -8.0915  -7.8872  -7.8471  -7.7600  -7.7075  -7.4559  -7.4318
     5.8044   5.9360   7.1079   7.1225   8.0551   8.3124   8.3876   8.5687
     9.5972   9.6914   9.9340  10.0104  10.9685  10.9904  11.5955  11.6769
    11.9483  12.1139  12.5291  12.6667  13.1161  13.1915  13.5232  13.5529
    13.8261  13.9237  14.1541  14.2309

          k = 0.2500-0.4330 0.3132 (  4739 PWs)   bands (ev):

   -31.8890 -31.8886 -31.6644 -31.6642 -31.4709 -31.4706 -31.2859 -31.2856
   -13.2404 -13.2029 -12.9980 -12.9794 -12.7085 -12.6994 -12.5219 -12.5085
    -9.5311  -9.4197  -9.2269  -9.1996  -8.9384  -8.8987  -8.7448  -8.6569
    -8.1800  -8.0867  -7.8893  -7.8408  -7.8078  -7.7062  -7.4454  -7.4122
     6.0333   6.1826   7.0669   7.1002   8.0684   8.1060   8.2694   8.3582
     9.8654  10.0218  10.0500  10.0805  10.7396  10.7756  11.3407  11.4058
    11.9278  11.9898  12.3861  12.4094  13.1138  13.2694  13.4121  13.4914
    13.8917  13.9744  14.0801  14.1710

          k = 0.2500-0.4330-0.6263 (  4718 PWs)   bands (ev):

   -31.8864 -31.8861 -31.6620 -31.6618 -31.4745 -31.4742 -31.2875 -31.2873
   -13.2389 -13.1869 -12.9658 -12.9487 -12.7338 -12.7208 -12.5493 -12.5361
    -9.5483  -9.4113  -9.1895  -9.1487  -8.9261  -8.9008  -8.7677  -8.7070
    -8.2188  -8.0603  -7.9009  -7.8582  -7.8245  -7.6557  -7.4248  -7.4100
     6.4430   6.5251   7.0786   7.1152   7.9380   7.9784   8.4398   8.4881
     9.3742   9.4417   9.6700   9.8294  10.7040  10.7729  11.4576  11.4879
    11.9609  11.9983  12.7331  12.8245  12.9049  12.9658  13.0733  13.2536
    13.9117  13.9433  14.0950  14.1868

          k =-0.5000-0.2887 0.0000 (  4734 PWs)   bands (ev):

   -31.9087 -31.9087 -31.6954 -31.6954 -31.4795 -31.4795 -31.3005 -31.3005
   -13.1693 -13.1693 -12.9321 -12.9321 -12.6330 -12.6330 -12.4840 -12.4840
    -9.3872  -9.3872  -9.1712  -9.1712  -8.8553  -8.8553  -8.6747  -8.6747
    -7.9399  -7.9399  -7.7862  -7.7862  -7.5734  -7.5734  -7.4161  -7.4161
     5.8390   5.8390   6.1805   6.1805   8.2244   8.2244   8.3741   8.3741
    10.0046  10.0046  10.3180  10.3180  10.7027  10.7027  11.2135  11.2135
    12.2193  12.2193  12.6137  12.6137  13.3744  13.3744  13.5213  13.5213
    13.8569  13.8569  14.0573  14.0573

          k =-0.5000-0.2887 0.3132 (  4726 PWs)   bands (ev):

   -31.9056 -31.9056 -31.6912 -31.6911 -31.4839 -31.4838 -31.3043 -31.3042
   -13.1488 -13.1284 -12.9145 -12.9037 -12.6684 -12.6572 -12.5237 -12.4921
    -9.3759  -9.3240  -9.1758  -9.1351  -8.8679  -8.8313  -8.7343  -8.6479
    -7.9892  -7.9555  -7.8714  -7.8198  -7.5671  -7.5335  -7.4306  -7.3913
     6.0234   6.0987   6.3178   6.4519   7.9514   8.0410   8.6304   8.6689
     9.4555   9.5156  10.1953  10.2623  10.7659  10.8172  11.1682  11.2628
    12.2211  12.2703  12.6229  12.6780  12.8953  12.9877  13.5139  13.6365
    13.7406  13.7922  13.8584  13.9465

          k =-0.5000-0.2887-0.6263 (  4748 PWs)   bands (ev):

   -31.9024 -31.9024 -31.6867 -31.6867 -31.4883 -31.4883 -31.3081 -31.3081
   -13.1032 -13.1032 -12.8849 -12.8849 -12.6955 -12.6955 -12.5348 -12.5348
    -9.3131  -9.3131  -9.1380  -9.1380  -8.8511  -8.8511  -8.7020  -8.7020
    -8.0002  -8.0002  -7.9009  -7.9009  -7.5346  -7.5346  -7.4067  -7.4067
     6.4128   6.4128   6.5487   6.5487   7.8709   7.8709   8.6051   8.6051
     9.2948   9.2948   9.8825   9.8825  11.0048  11.0048  11.1318  11.1318
    12.3841  12.3841  12.8894  12.8894  13.0225  13.0225  13.1563  13.1563
    13.3287  13.3287  13.6685  13.6685

          k =-0.5000 0.2887 0.0000 (  4740 PWs)   bands (ev):

   -31.8894 -31.8890 -31.6683 -31.6681 -31.4668 -31.4665 -31.2855 -31.2852
   -13.2333 -13.2119 -12.9982 -12.9785 -12.7021 -12.6892 -12.5253 -12.5079
    -9.4651  -9.4354  -9.2404  -9.2105  -8.9657  -8.9351  -8.7928  -8.6815
    -8.0566  -8.0135  -7.8899  -7.8366  -7.7836  -7.7281  -7.4979  -7.4791
     5.9306   6.0871   6.9879   7.0714   8.1009   8.2334   8.3394   8.4223
     9.5238   9.6094   9.9350  10.0036  10.9496  10.9828  11.5428  11.7003
    12.0140  12.1544  12.5731  12.6436  13.2685  13.3333  13.4868  13.5327
    13.8148  13.9070  14.0726  14.0903

          k =-0.5000 0.2887 0.3132 (  4725 PWs)   bands (ev):

   -31.8871 -31.8867 -31.6658 -31.6656 -31.4701 -31.4697 -31.2874 -31.2871
   -13.2289 -13.1945 -12.9765 -12.9514 -12.7258 -12.7130 -12.5537 -12.5251
    -9.4729  -9.4067  -9.2398  -9.1781  -8.9649  -8.9360  -8.7787  -8.7201
    -8.0880  -8.0052  -7.9073  -7.8580  -7.8092  -7.6775  -7.4856  -7.4464
     6.0948   6.2072   6.9840   7.0512   8.2030   8.3365   8.5845   8.6181
     9.2652   9.3272   9.4249   9.4959  11.1667  11.2389  11.7166  11.8287
    12.1764  12.2352  12.3920  12.4093  13.0612  13.1523  13.3816  13.4329
    13.6945  13.7574  13.9891  14.0523

          k =-0.5000 0.2887-0.6263 (  4722 PWs)   bands (ev):

   -31.8852 -31.8848 -31.6633 -31.6631 -31.4730 -31.4726 -31.2891 -31.2889
   -13.2474 -13.2033 -12.9574 -12.9381 -12.7310 -12.7155 -12.5548 -12.5401
    -9.4868  -9.3957  -9.2209  -9.1729  -8.9375  -8.9186  -8.7713  -8.6935
    -8.1113  -8.0270  -7.9572  -7.9205  -7.7884  -7.6350  -7.4650  -7.4403
     6.4439   6.5515   6.9257   6.9976   7.9027   7.9740   8.2640   8.3247
     9.3944   9.5028   9.7940   9.9701  11.0401  11.1237  11.4004  11.4473
    12.4812  12.5285  12.7668  12.8224  12.8622  12.9504  13.0902  13.1557
    13.3985  13.4754  14.1535  14.2227

          k =-0.5000-1.4434 0.0000 (  4746 PWs)   bands (ev):

   -31.8645 -31.8645 -31.6463 -31.6463 -31.4514 -31.4514 -31.2725 -31.2725
   -13.2464 -13.2464 -13.0676 -13.0676 -12.7395 -12.7395 -12.5738 -12.5738
    -9.4798  -9.4798  -9.3141  -9.3141  -8.9980  -8.9980  -8.8452  -8.8452
    -8.0980  -8.0980  -7.9448  -7.9448  -7.8273  -7.8273  -7.7022  -7.7022
     7.0318   7.0318   7.1029   7.1029   8.0895   8.0895   8.3499   8.3499
     9.2861   9.2861   9.6534   9.6534  11.5128  11.5128  11.7543  11.7543
    11.9950  11.9950  12.2921  12.2921  13.3479  13.3479  13.6248  13.6248
    13.7072  13.7072  14.0592  14.0592

          k =-0.5000-1.4434 0.3132 (  4724 PWs)   bands (ev):

   -31.8641 -31.8641 -31.6450 -31.6450 -31.4528 -31.4527 -31.2728 -31.2728
   -13.2638 -13.2528 -13.0834 -13.0735 -12.7462 -12.7351 -12.5743 -12.5666
    -9.5092  -9.4657  -9.3613  -9.2771  -9.0144  -8.9567  -8.8614  -8.7849
    -8.1418  -8.1005  -7.9793  -7.9389  -7.8586  -7.7790  -7.6719  -7.6053
     6.9692   7.0083   7.0721   7.0969   7.9110   7.9804   8.2426   8.3594
     9.2872   9.4181   9.7943   9.9832  11.3261  11.4101  11.6241  11.7099
    12.2289  12.2603  12.4478  12.5111  13.0030  13.0538  13.1408  13.1807
    13.6743  13.7337  13.9722  14.0317

          k =-0.5000-1.4434-0.6263 (  4696 PWs)   bands (ev):

   -31.8637 -31.8637 -31.6436 -31.6436 -31.4540 -31.4540 -31.2732 -31.2732
   -13.2699 -13.2699 -13.0893 -13.0893 -12.7410 -12.7410 -12.5679 -12.5679
    -9.4980  -9.4980  -9.3279  -9.3279  -8.9699  -8.9699  -8.8007  -8.8007
    -8.1371  -8.1371  -7.9694  -7.9694  -7.8175  -7.8175  -7.5761  -7.5761
     6.9546   6.9546   7.0506   7.0506   7.7911   7.7911   8.2997   8.2997
     9.5004   9.5004  10.0253  10.0253  11.2188  11.2188  11.4838  11.4838
    12.5149  12.5149  12.6882  12.6882  12.8019  12.8019  13.0221  13.0221
    14.0201  14.0201  14.1594  14.1595

          k = 0.0000-0.5774 0.3132 (  4725 PWs)   bands (ev):

   -31.8868 -31.8865 -31.6667 -31.6664 -31.4696 -31.4693 -31.2872 -31.2870
   -13.2166 -13.1985 -13.0137 -12.9764 -12.7092 -12.6962 -12.5282 -12.5191
    -9.5026  -9.4108  -9.2561  -9.2215  -8.9334  -8.8639  -8.7464  -8.7120
    -8.1874  -8.0962  -7.8403  -7.8172  -7.7956  -7.6852  -7.4819  -7.4373
     6.1486   6.2863   6.9065   7.0194   8.1254   8.2130   8.3677   8.5031
     9.7287   9.8135   9.9187   9.9558  10.8796  10.9402  11.3926  11.4044
    11.8315  11.9479  12.4147  12.4702  13.0701  13.1604  13.2769  13.3833
    13.7295  13.7892  14.1113  14.2310

          k =-0.2500-0.1443 0.3132 (  4740 PWs)   bands (ev):

   -31.9093 -31.9092 -31.6873 -31.6872 -31.4865 -31.4865 -31.3016 -31.3014
   -13.1666 -13.1375 -12.9130 -12.9070 -12.6896 -12.6677 -12.4961 -12.4755
    -9.4350  -9.3498  -9.1476  -9.1216  -8.9180  -8.8652  -8.6808  -8.5955
    -8.0654  -7.9930  -7.7764  -7.7439  -7.6752  -7.6054  -7.3016  -7.2856
     5.5756   5.6866   6.4357   6.5245   8.1176   8.2375   8.5232   8.6052
     9.4540   9.5268   9.9274   9.9666  10.6994  10.7930  11.3140  11.4210
    12.1848  12.2158  12.6992  12.7302  13.1135  13.1446  13.4232  13.4753
    13.8265  13.8575  14.0056  14.0670

          k =-0.2500-0.7217 0.3132 (  4734 PWs)   bands (ev):

   -31.8853 -31.8850 -31.6683 -31.6680 -31.4682 -31.4680 -31.2886 -31.2884
   -13.2303 -13.2125 -13.0018 -12.9645 -12.6958 -12.6907 -12.5402 -12.5283
    -9.4493  -9.4065  -9.2772  -9.2085  -8.9290  -8.8988  -8.7816  -8.7034
    -8.1098  -8.0521  -7.9128  -7.8607  -7.7027  -7.6370  -7.5652  -7.4877
     6.5038   6.5878   6.6576   6.7798   7.9081   7.9741   8.2820   8.3902
     9.7843   9.8629   9.8907   9.9651  11.0386  11.0465  11.5285  11.6207
    11.9408  12.0331  12.2601  12.3059  13.0891  13.1671  13.2414  13.4016
    13.6854  13.7633  13.9551  13.9885

          k =-0.2500 1.0104 0.3132 (  4718 PWs)   bands (ev):

   -31.8641 -31.8641 -31.6449 -31.6449 -31.4528 -31.4528 -31.2728 -31.2728
   -13.2765 -13.2649 -13.0854 -13.0610 -12.7489 -12.7346 -12.5778 -12.5671
    -9.5190  -9.4530  -9.3704  -9.2576  -9.0388  -8.9952  -8.8720  -8.7823
    -8.1491  -8.1177  -7.9764  -7.8635  -7.8254  -7.7701  -7.6427  -7.5856
     6.9371   6.9768   7.0732   7.0888   7.6889   7.7978   8.0292   8.0996
     9.3930   9.4666   9.7826   9.9164  10.9924  11.0202  11.3151  11.3559
    12.4258  12.4639  12.7346  12.7514  12.9155  12.9607  13.2930  13.3640
    13.7379  13.7672  14.0206  14.0671

          k =-0.2500 0.4330 0.3132 (  4739 PWs)   bands (ev):

   -31.8885 -31.8882 -31.6644 -31.6642 -31.4714 -31.4710 -31.2859 -31.2857
   -13.2244 -13.1840 -12.9759 -12.9560 -12.7323 -12.7168 -12.5469 -12.5266
    -9.5105  -9.4252  -9.2428  -9.1610  -8.9519  -8.9043  -8.7629  -8.7260
    -8.1900  -8.0630  -7.8884  -7.8227  -7.7865  -7.6893  -7.4448  -7.4133
     6.1162   6.1945   7.1166   7.1454   8.1453   8.3150   8.6264   8.7682
     9.0495   9.1976   9.5334   9.6578  10.9914  11.0364  11.5408  11.6453
    11.9842  12.0188  12.3456  12.3839  13.0735  13.2222  13.5212  13.6128
    13.9461  13.9652  14.1874  14.2508

          k = 0.5000-0.2887 0.3132 (  4725 PWs)   bands (ev):

   -31.8875 -31.8871 -31.6659 -31.6657 -31.4696 -31.4693 -31.2873 -31.2870
   -13.2510 -13.2180 -12.9872 -12.9682 -12.7027 -12.6872 -12.5350 -12.5157
    -9.4897  -9.4100  -9.2393  -9.1888  -8.9528  -8.9085  -8.7793  -8.6555
    -8.0941  -8.0392  -7.9315  -7.8902  -7.7820  -7.6743  -7.4950  -7.4490
     6.2135   6.3876   6.9273   7.0222   7.8596   7.9120   8.1890   8.2652
     9.8499   9.9453  10.0723  10.1467  10.7975  10.8315  11.3591  11.4572
    12.2126  12.3400  12.6124  12.6627  13.0272  13.1177  13.2872  13.3703
    13.6605  13.7093  13.8780  13.9887

     the Fermi energy is    12.3849 ev

!    total energy              =   -2243.67495879 Ry
     Harris-Foulkes estimate   =   -2243.67495922 Ry
     estimated scf accuracy    <       0.00000050 Ry

     total all-electron energy =    -90248.018344 Ry

     The total energy is the sum of the following terms:

     one-electron contribution =     -31.97975022 Ry
     hartree contribution      =      41.76584739 Ry
     xc contribution           =    -257.53795709 Ry
     ewald contribution        =    -247.79081632 Ry
     one-center paw contrib.   =   -1748.12880745 Ry
     smearing contrib. (-TS)   =      -0.00347509 Ry

     convergence has been achieved in  10 iterations

     Forces acting on atoms (cartesian axes, Ry/au):

     atom    1 type  1   force =    -0.06833353    0.05181892   -0.92200759
     atom    2 type  1   force =     0.19202974    0.12909639   -0.87687621
     atom    3 type  1   force =     0.01447881   -0.90638863   -0.60350921
     atom    4 type  1   force =    -0.05993735   -0.99641889   -0.25277456
     atom    5 type  2   force =     0.05516746   -0.05580689    0.93585316
     atom    6 type  2   force =    -0.17512276   -0.14479624    0.88906511
     atom    7 type  2   force =     0.00893604    0.01879732   -0.01102848
     atom    8 type  2   force =    -0.00561137    0.00263544   -0.00261322
     atom    9 type  2   force =    -0.01759534    0.91266992    0.60743165
     atom   10 type  2   force =     0.05598830    0.98839266    0.23645936

     Total force =     2.808751     Total SCF correction =     0.003188

     Writing output data file 2411.save
 
     init_run     :      7.45s CPU      7.83s WALL (       1 calls)
     electrons    :    132.08s CPU    135.90s WALL (       1 calls)
     forces       :      2.67s CPU      2.72s WALL (       1 calls)

     Called by init_run:
     wfcinit      :      6.29s CPU      6.43s WALL (       1 calls)
     potinit      :      0.69s CPU      0.75s WALL (       1 calls)

     Called by electrons:
     c_bands      :    108.69s CPU    110.36s WALL (      10 calls)
     sum_band     :     15.81s CPU     16.31s WALL (      10 calls)
     v_of_rho     :      0.10s CPU      0.11s WALL (      11 calls)
     newd         :      1.51s CPU      1.74s WALL (      11 calls)
     PAW_pot      :      6.59s CPU      6.63s WALL (      11 calls)
     mix_rho      :      0.09s CPU      0.11s WALL (      10 calls)

     Called by c_bands:
     init_us_2    :      0.63s CPU      0.63s WALL (     792 calls)
     cegterg      :     93.59s CPU     95.11s WALL (     360 calls)

     Called by sum_band:
     sum_band:bec :      1.58s CPU      1.58s WALL (     360 calls)
     addusdens    :      0.93s CPU      1.14s WALL (      10 calls)

     Called by *egterg:
     h_psi        :     63.46s CPU     64.67s WALL (    1498 calls)
     s_psi        :      6.66s CPU      6.66s WALL (    1498 calls)
     g_psi        :      0.50s CPU      0.50s WALL (    1102 calls)
     cdiaghg      :      9.42s CPU      9.47s WALL (    1462 calls)

     Called by h_psi:
     h_psi:pot    :     62.71s CPU     63.89s WALL (    1498 calls)
     h_psi:calbec :      5.54s CPU      5.68s WALL (    1498 calls)
     vloc_psi     :     50.46s CPU     51.48s WALL (    1498 calls)
     add_vuspsi   :      6.70s CPU      6.72s WALL (    1498 calls)

     General routines
     calbec       :      8.28s CPU      8.50s WALL (    2002 calls)
     fft          :      0.09s CPU      0.19s WALL (     216 calls)
     fftw         :     51.23s CPU     52.31s WALL (  283696 calls)
     davcio       :      0.00s CPU      0.04s WALL (      36 calls)
 
     Parallel routines
     fft_scatter  :     14.54s CPU     14.91s WALL (  283912 calls)
 
     PWSCF        :  2m23.46s CPU     5m49.73s WALL

 
   This run was terminated on:  13:48:21  30Nov2022            

=------------------------------------------------------------------------------=
   JOB DONE.
=------------------------------------------------------------------------------=
Removing 2411 from /home/shaharpit/tmp
