
     Program PWSCF v.6.1 (svn rev. 13369) starts on 30Nov2022 at 13:42:31 

     This program is part of the open-source Quantum ESPRESSO suite
     for quantum simulation of materials; please cite
         "P. Giannozzi et al., J. Phys.:Condens. Matter 21 395502 (2009);
          URL http://www.quantum-espresso.org", 
     in publications or presentations arising from this work. More details at
     http://www.quantum-espresso.org/quote

     Parallel version (MPI), running on     4 processors
     R & G space division:  proc/nbgrp/npool/nimage =       4
     Reading input from ./hcp_25_1.in
Warning: card &IONS ignored
Warning: card 	ION_DYNAMICS='BFGS', ignored
Warning: card / ignored
Warning: card &CELL ignored
Warning: card / ignored

     Current dimensions of program PWSCF are:
     Max number of different atomic species (ntypx) = 10
     Max number of k-points (npk) =  40000
     Max angular momentum in pseudopotentials (lmaxx) =  3
               file Gd.rel-pbe-spdn-kjpaw_psl.1.0.0.UPF: wavefunction(s)  5P 5P renormalized
               file H.pbe-kjpaw_psl.0.1.UPF: wavefunction(s)  1S renormalized

     Subspace diagonalization in iterative solution of the eigenvalue problem:
     a serial algorithm will be used

 
     Parallelization info
     --------------------
     sticks:   dense  smooth     PW     G-vecs:    dense   smooth      PW
     Min         321     321     98                10533    10533    1775
     Max         322     322    100                10538    10538    1776
     Sum        1287    1287    397                42147    42147    7103
 


     bravais-lattice index     =            0
     lattice parameter (alat)  =      13.6588  a.u.
     unit-cell volume          =     880.8636 (a.u.)^3
     number of atoms/cell      =            6
     number of atomic types    =            2
     number of electrons       =        46.00
     number of Kohn-Sham states=           56
     kinetic-energy cutoff     =      50.0000  Ry
     charge density cutoff     =     200.0000  Ry
     convergence threshold     =      1.0E-06
     mixing beta               =       0.7000
     number of iterations used =            8  plain     mixing
     Exchange-correlation      =  SLA  PW   PBX  PBC ( 1  4  3  4 0 0)
     Non magnetic calculation with spin-orbit


     celldm(1)=  13.658752  celldm(2)=   0.000000  celldm(3)=   0.000000
     celldm(4)=   0.000000  celldm(5)=   0.000000  celldm(6)=   0.000000

     crystal axes: (cart. coord. in units of alat)
               a(1) = (   1.000000   0.000000   0.000000 )  
               a(2) = (  -0.250003   0.433017   0.000000 )  
               a(3) = (   0.000000   0.000000   0.798309 )  

     reciprocal axes: (cart. coord. in units 2 pi/alat)
               b(1) = (  1.000000  0.577353  0.000000 )  
               b(2) = (  0.000000  2.309381  0.000000 )  
               b(3) = (  0.000000  0.000000  1.252647 )  


     PseudoPot. # 1 for Gd read from file:
     /home/shaharpit/MeamGdH/dft/qe_potentials/Gd.rel-pbe-spdn-kjpaw_psl.1.0.0.UPF
     MD5 check sum: cf50ec46d1536b4a0251694df1946a53
     Pseudo is Projector augmented-wave + core cor, Zval = 11.0
     Generated using "atomic" code by A. Dal Corso  v.6.2.2
     Shape of augmentation charge: PSQ
     Using radial grid of 1263 points, 10 beta functions with: 
                l(1) =   0
                l(2) =   0
                l(3) =   1
                l(4) =   1
                l(5) =   1
                l(6) =   1
                l(7) =   2
                l(8) =   2
                l(9) =   2
               l(10) =   2
     Q(r) pseudized with 0 coefficients 


     PseudoPot. # 2 for  H read from file:
     /home/shaharpit/MeamGdH/dft/qe_potentials/H.pbe-kjpaw_psl.0.1.UPF
     MD5 check sum: fbb168fef676c0aaadbafd73f5b1efa8
     Pseudo is Projector augmented-wave, Zval =  1.0
     Generated using "atomic" code by A. Dal Corso  v.5.0.2 svn rev. 9415
     Shape of augmentation charge: PSQ
     Using radial grid of  929 points,  2 beta functions with: 
                l(1) =   0
                l(2) =   0
     Q(r) pseudized with 0 coefficients 


     atomic species   valence    mass     pseudopotential
        Gd            11.00   157.25000     Gd( 1.00)
        H              1.00     1.00794      H( 1.00)

     No symmetry found



   Cartesian axes

     site n.     atom                  positions (alat units)
         1           Gd  tau(   1) = (   0.2499738   0.1443244   0.5987320  )
         2           Gd  tau(   2) = (   0.7499738   0.1443244   0.5987320  )
         3           Gd  tau(   3) = (   0.0000227   0.2886921   0.1995773  )
         4           Gd  tau(   4) = (   0.5000227   0.2886921   0.1995773  )
         5           H   tau(   5) = (   0.2603489   0.1351878   0.7734021  )
         6           H   tau(   6) = (   0.7141741   0.1153989   0.7679736  )

     number of k points=    36  gaussian smearing, width (Ry)=  0.0100
                       cart. coord. in units 2pi/alat
        k(    1) = (   0.0000000   0.0000000   0.0000000), wk =   0.0156250
        k(    2) = (   0.0000000   0.0000000   0.3131618), wk =   0.0312500
        k(    3) = (   0.0000000   0.0000000  -0.6263236), wk =   0.0156250
        k(    4) = (   0.0000000   0.5773452   0.0000000), wk =   0.0312500
        k(    5) = (   0.0000000   0.5773452   0.3131618), wk =   0.0312500
        k(    6) = (   0.0000000   0.5773452  -0.6263236), wk =   0.0312500
        k(    7) = (   0.0000000  -1.1546904   0.0000000), wk =   0.0156250
        k(    8) = (   0.0000000  -1.1546904   0.3131618), wk =   0.0312500
        k(    9) = (   0.0000000  -1.1546904  -0.6263236), wk =   0.0156250
        k(   10) = (   0.2500000   0.1443383   0.0000000), wk =   0.0312500
        k(   11) = (   0.2500000   0.1443383   0.3131618), wk =   0.0312500
        k(   12) = (   0.2500000   0.1443383  -0.6263236), wk =   0.0312500
        k(   13) = (   0.2500000   0.7216835   0.0000000), wk =   0.0312500
        k(   14) = (   0.2500000   0.7216835   0.3131618), wk =   0.0312500
        k(   15) = (   0.2500000   0.7216835  -0.6263236), wk =   0.0312500
        k(   16) = (   0.2500000  -1.0103521   0.0000000), wk =   0.0312500
        k(   17) = (   0.2500000  -1.0103521   0.3131618), wk =   0.0312500
        k(   18) = (   0.2500000  -1.0103521  -0.6263236), wk =   0.0312500
        k(   19) = (   0.2500000  -0.4330069   0.0000000), wk =   0.0312500
        k(   20) = (   0.2500000  -0.4330069   0.3131618), wk =   0.0312500
        k(   21) = (   0.2500000  -0.4330069  -0.6263236), wk =   0.0312500
        k(   22) = (  -0.5000000  -0.2886766   0.0000000), wk =   0.0156250
        k(   23) = (  -0.5000000  -0.2886766   0.3131618), wk =   0.0312500
        k(   24) = (  -0.5000000  -0.2886766  -0.6263236), wk =   0.0156250
        k(   25) = (  -0.5000000   0.2886686   0.0000000), wk =   0.0312500
        k(   26) = (  -0.5000000   0.2886686   0.3131618), wk =   0.0312500
        k(   27) = (  -0.5000000   0.2886686  -0.6263236), wk =   0.0312500
        k(   28) = (  -0.5000000  -1.4433670   0.0000000), wk =   0.0156250
        k(   29) = (  -0.5000000  -1.4433670   0.3131618), wk =   0.0312500
        k(   30) = (  -0.5000000  -1.4433670  -0.6263236), wk =   0.0156250
        k(   31) = (   0.0000000  -0.5773452   0.3131618), wk =   0.0312500
        k(   32) = (  -0.2500000  -0.1443383   0.3131618), wk =   0.0312500
        k(   33) = (  -0.2500000  -0.7216835   0.3131618), wk =   0.0312500
        k(   34) = (  -0.2500000   1.0103521   0.3131618), wk =   0.0312500
        k(   35) = (  -0.2500000   0.4330069   0.3131618), wk =   0.0312500
        k(   36) = (   0.5000000  -0.2886686   0.3131618), wk =   0.0312500

     Dense  grid:    42147 G-vectors     FFT dimensions: (  64,  32,  50)

     Estimated max dynamical RAM per process >     124.53MB

     Estimated total allocated dynamical RAM >     498.14MB

     Initial potential from superposition of free atoms

     starting charge   45.92379, renormalised to   46.00000
     Starting wfc are  108 randomized atomic wfcs
     Checking if some PAW data can be deallocated... 

     total cpu time spent up to now is        9.8 secs

     per-process dynamical memory:   159.1 Mb

     Self-consistent Calculation

     iteration #  1     ecut=    50.00 Ry     beta=0.70
     Davidson diagonalization with overlap
     ethr =  1.00E-02,  avg # of iterations =  2.0

     total cpu time spent up to now is       24.3 secs

     total energy              =   -2239.78566038 Ry
     Harris-Foulkes estimate   =   -2240.27439165 Ry
     estimated scf accuracy    <       0.68024824 Ry

     iteration #  2     ecut=    50.00 Ry     beta=0.70
     Davidson diagonalization with overlap
     ethr =  1.48E-03,  avg # of iterations =  4.5

     total cpu time spent up to now is       42.9 secs

     total energy              =   -2239.43770394 Ry
     Harris-Foulkes estimate   =   -2240.62724060 Ry
     estimated scf accuracy    <       3.76657891 Ry

     iteration #  3     ecut=    50.00 Ry     beta=0.70
     Davidson diagonalization with overlap
     ethr =  1.48E-03,  avg # of iterations =  4.0

     total cpu time spent up to now is       59.8 secs

     total energy              =   -2240.03333908 Ry
     Harris-Foulkes estimate   =   -2240.13159110 Ry
     estimated scf accuracy    <       0.32393472 Ry

     iteration #  4     ecut=    50.00 Ry     beta=0.70
     Davidson diagonalization with overlap
     ethr =  7.04E-04,  avg # of iterations =  3.0

     total cpu time spent up to now is       73.8 secs

     total energy              =   -2240.06466431 Ry
     Harris-Foulkes estimate   =   -2240.10288273 Ry
     estimated scf accuracy    <       0.11820677 Ry

     iteration #  5     ecut=    50.00 Ry     beta=0.70
     Davidson diagonalization with overlap
     ethr =  2.57E-04,  avg # of iterations =  2.9

     total cpu time spent up to now is       86.7 secs

     total energy              =   -2240.08067277 Ry
     Harris-Foulkes estimate   =   -2240.08922999 Ry
     estimated scf accuracy    <       0.03266714 Ry

     iteration #  6     ecut=    50.00 Ry     beta=0.70
     Davidson diagonalization with overlap
     ethr =  7.10E-05,  avg # of iterations =  2.3

     total cpu time spent up to now is       99.4 secs

     total energy              =   -2240.08470542 Ry
     Harris-Foulkes estimate   =   -2240.08510945 Ry
     estimated scf accuracy    <       0.00121370 Ry

     iteration #  7     ecut=    50.00 Ry     beta=0.70
     Davidson diagonalization with overlap
     ethr =  2.64E-06,  avg # of iterations =  6.4

     total cpu time spent up to now is      117.5 secs

     total energy              =   -2240.08495984 Ry
     Harris-Foulkes estimate   =   -2240.08507896 Ry
     estimated scf accuracy    <       0.00026084 Ry

     iteration #  8     ecut=    50.00 Ry     beta=0.70
     Davidson diagonalization with overlap
     ethr =  5.67E-07,  avg # of iterations =  3.5

     total cpu time spent up to now is      132.1 secs

     total energy              =   -2240.08498933 Ry
     Harris-Foulkes estimate   =   -2240.08509474 Ry
     estimated scf accuracy    <       0.00034431 Ry

     iteration #  9     ecut=    50.00 Ry     beta=0.70
     Davidson diagonalization with overlap
     ethr =  5.67E-07,  avg # of iterations =  2.5

     total cpu time spent up to now is      145.2 secs

     total energy              =   -2240.08503397 Ry
     Harris-Foulkes estimate   =   -2240.08504051 Ry
     estimated scf accuracy    <       0.00001550 Ry

     iteration # 10     ecut=    50.00 Ry     beta=0.70
     Davidson diagonalization with overlap
     ethr =  3.37E-08,  avg # of iterations =  3.3

     total cpu time spent up to now is      160.7 secs

     total energy              =   -2240.08503798 Ry
     Harris-Foulkes estimate   =   -2240.08503860 Ry
     estimated scf accuracy    <       0.00000130 Ry

     iteration # 11     ecut=    50.00 Ry     beta=0.70
     Davidson diagonalization with overlap
     ethr =  2.83E-09,  avg # of iterations =  3.1

     total cpu time spent up to now is      174.9 secs

     End of self-consistent calculation

          k = 0.0000 0.0000 0.0000 (  5289 PWs)   bands (ev):

   -33.8086 -33.8086 -33.7282 -33.7282 -33.2424 -33.2424 -33.1729 -33.1729
   -14.5866 -14.5866 -14.5228 -14.5228 -14.3588 -14.3588 -14.1721 -14.1721
   -10.6684 -10.6684 -10.6142 -10.6142 -10.4335 -10.4335 -10.1307 -10.1307
    -9.9579  -9.9579  -9.9438  -9.9438  -9.5388  -9.5388  -9.1790  -9.1790
     4.9599   4.9599   6.6152   6.6152   7.7477   7.7477   9.1636   9.1636
     9.2821   9.2821   9.9629   9.9629  10.2754  10.2754  11.4763  11.4763
    11.8276  11.8276  11.8769  11.8769  12.0898  12.0898  12.2670  12.2670

          k = 0.0000 0.0000 0.3132 (  5279 PWs)   bands (ev):

   -33.8074 -33.8074 -33.7276 -33.7276 -33.2438 -33.2438 -33.1734 -33.1734
   -14.5898 -14.5700 -14.4853 -14.4823 -14.3747 -14.3565 -14.2136 -14.2118
   -10.6823 -10.6507 -10.5600 -10.5561 -10.4302 -10.4094 -10.1728 -10.1008
   -10.0402 -10.0300  -9.9478  -9.9472  -9.5462  -9.5161  -9.1829  -9.1829
     5.4317   5.4399   6.6146   6.6197   7.8050   7.8090   8.7647   8.7735
     9.2170   9.2258   9.5306   9.5399  10.2556  10.2785  11.2618  11.2933
    11.5838  11.5899  11.9331  11.9598  12.1055  12.1170  12.1999  12.2042

          k = 0.0000 0.0000-0.6263 (  5252 PWs)   bands (ev):

   -33.8062 -33.8062 -33.7271 -33.7271 -33.2453 -33.2453 -33.1739 -33.1739
   -14.5770 -14.5770 -14.4161 -14.4161 -14.3771 -14.3771 -14.2735 -14.2735
   -10.6731 -10.6731 -10.4587 -10.4587 -10.4074 -10.4074 -10.1823 -10.1823
   -10.1141 -10.1141  -9.9448  -9.9448  -9.5221  -9.5221  -9.1868  -9.1868
     6.2946   6.2946   6.6508   6.6508   7.4664   7.4664   8.1144   8.1144
     8.8299   8.8299   9.6363   9.6363  10.3324  10.3324  11.2957  11.2957
    11.4938  11.4938  11.8930  11.8930  12.0512  12.0512  12.2825  12.2825

          k = 0.0000 0.5773 0.0000 (  5253 PWs)   bands (ev):

   -33.7918 -33.7918 -33.7219 -33.7219 -33.2280 -33.2278 -33.1677 -33.1676
   -14.5956 -14.5836 -14.5430 -14.5214 -14.3605 -14.3580 -14.2643 -14.2500
   -10.6912 -10.6662 -10.6311 -10.5951 -10.3773 -10.3705 -10.2296 -10.2097
   -10.1740 -10.1434 -10.0369 -10.0279  -9.5895  -9.5682  -9.3760  -9.3731
     5.8474   5.9089   6.6513   6.7390   8.4743   8.6408   9.5217   9.5351
     9.6650   9.7873  10.0628  10.0799  10.2138  10.2949  10.5682  10.6601
    11.2248  11.2866  11.5693  11.6040  11.7899  11.8296  12.1922  12.2727

          k = 0.0000 0.5773 0.3132 (  5250 PWs)   bands (ev):

   -33.7913 -33.7912 -33.7214 -33.7214 -33.2287 -33.2285 -33.1681 -33.1680
   -14.5910 -14.5763 -14.5271 -14.5019 -14.3730 -14.3636 -14.2855 -14.2701
   -10.6993 -10.6447 -10.6090 -10.5737 -10.3772 -10.3463 -10.2494 -10.2356
   -10.1727 -10.1540 -10.0805 -10.0283  -9.5791  -9.5459  -9.3795  -9.3670
     6.0831   6.1342   6.7097   6.7726   8.5834   8.7451   9.2750   9.3366
     9.5883   9.6487   9.9018  10.0307  10.4003  10.4995  10.5226  10.5367
    10.9643  11.0492  11.1835  11.2083  11.4889  11.5687  12.1614  12.2079

          k = 0.0000 0.5773-0.6263 (  5272 PWs)   bands (ev):

   -33.7906 -33.7906 -33.7210 -33.7210 -33.2295 -33.2293 -33.1686 -33.1684
   -14.5885 -14.5684 -14.4925 -14.4786 -14.3830 -14.3769 -14.3077 -14.3044
   -10.7198 -10.6162 -10.5609 -10.5384 -10.3755 -10.3446 -10.2796 -10.2544
   -10.1900 -10.1690 -10.0805 -10.0651  -9.5788  -9.5229  -9.3667  -9.3643
     6.5586   6.5655   6.7605   6.7823   8.2905   8.3172   8.9861   9.0467
     9.3820   9.4356   9.9491  10.1080  10.5724  10.5854  10.6451  10.7169
    10.9754  11.0736  11.1061  11.1704  11.4380  11.5054  11.5989  11.6332

          k = 0.0000-1.1547 0.0000 (  5284 PWs)   bands (ev):

   -33.7783 -33.7783 -33.7122 -33.7122 -33.2162 -33.2162 -33.1595 -33.1595
   -14.5972 -14.5972 -14.5446 -14.5446 -14.3829 -14.3829 -14.3276 -14.3276
   -10.6870 -10.6870 -10.6071 -10.6071 -10.4489 -10.4489 -10.4195 -10.4195
   -10.1458 -10.1458 -10.1039 -10.1039  -9.5874  -9.5874  -9.5082  -9.5082
     6.5586   6.5586   6.6893   6.6893   9.0988   9.0988   9.2184   9.2184
     9.2451   9.2451   9.3812   9.3812   9.9753   9.9753  10.0827  10.0827
    11.4850  11.4850  11.6746  11.6746  11.8191  11.8191  11.8997  11.8997

          k = 0.0000-1.1547 0.3132 (  5252 PWs)   bands (ev):

   -33.7782 -33.7782 -33.7120 -33.7120 -33.2164 -33.2164 -33.1596 -33.1596
   -14.6028 -14.5978 -14.5476 -14.5362 -14.3971 -14.3857 -14.3317 -14.3264
   -10.7069 -10.6987 -10.6320 -10.6125 -10.4379 -10.4319 -10.4001 -10.3951
   -10.1695 -10.1650 -10.0915 -10.0761  -9.5826  -9.5690  -9.5032  -9.4899
     6.5463   6.5574   6.6523   6.6579   8.8880   8.9137   9.0213   9.0426
     9.2770   9.2946   9.3291   9.3438  10.2556  10.2701  10.2899  10.3004
    11.3054  11.3228  11.4699  11.4825  12.1961  12.1996  12.2397  12.2572

          k = 0.0000-1.1547-0.6263 (  5272 PWs)   bands (ev):

   -33.7780 -33.7780 -33.7117 -33.7117 -33.2166 -33.2166 -33.1597 -33.1597
   -14.6015 -14.6015 -14.5434 -14.5434 -14.3950 -14.3950 -14.3333 -14.3333
   -10.7110 -10.7110 -10.6424 -10.6424 -10.4261 -10.4261 -10.3816 -10.3816
   -10.1421 -10.1421 -10.1028 -10.1028  -9.5594  -9.5594  -9.4887  -9.4887
     6.5724   6.5724   6.6533   6.6533   8.5389   8.5389   8.5998   8.5998
     9.5349   9.5349   9.6070   9.6070  10.3505  10.3505  10.4202  10.4202
    11.5489  11.5489  11.7037  11.7037  12.2726  12.2726  12.2970  12.2970

          k = 0.2500 0.1443 0.0000 (  5279 PWs)   bands (ev):

   -33.8052 -33.8052 -33.7317 -33.7317 -33.2395 -33.2394 -33.1759 -33.1759
   -14.5869 -14.5790 -14.5277 -14.5200 -14.3352 -14.3332 -14.1965 -14.1946
   -10.6834 -10.6680 -10.6184 -10.6155 -10.3777 -10.3472 -10.1147 -10.1007
   -10.0272 -10.0203  -9.9699  -9.9655  -9.4981  -9.4932  -9.2401  -9.2377
     5.2136   5.2516   6.4124   6.4546   7.9671   8.0693   9.0107   9.0621
     9.5082   9.5277  10.0766  10.1442  10.3601  10.3936  11.2749  11.2974
    11.5056  11.5186  11.9154  11.9260  12.0239  12.0364  12.2016  12.2134

          k = 0.2500 0.1443 0.3132 (  5261 PWs)   bands (ev):

   -33.8041 -33.8041 -33.7309 -33.7309 -33.2407 -33.2406 -33.1767 -33.1766
   -14.5798 -14.5542 -14.4967 -14.4864 -14.3570 -14.3427 -14.2318 -14.2280
   -10.6528 -10.6476 -10.5790 -10.5602 -10.3881 -10.3443 -10.1638 -10.0999
   -10.0740 -10.0568  -9.9942  -9.9823  -9.4990  -9.4709  -9.2439  -9.2421
     5.6168   5.6507   6.5636   6.5954   8.0629   8.1604   8.7731   8.8262
     9.2602   9.2678   9.5665   9.5778  10.3813  10.4172  11.0927  11.1022
    11.4144  11.4164  11.6339  11.6397  11.9909  12.0352  12.2758  12.2832

          k = 0.2500 0.1443-0.6263 (  5254 PWs)   bands (ev):

   -33.8031 -33.8031 -33.7302 -33.7302 -33.2420 -33.2419 -33.1774 -33.1773
   -14.5594 -14.5535 -14.4400 -14.4316 -14.3670 -14.3649 -14.2822 -14.2816
   -10.6474 -10.6335 -10.4856 -10.4780 -10.3736 -10.3613 -10.1961 -10.1891
   -10.1228 -10.1037  -9.9939  -9.9901  -9.4828  -9.4788  -9.2421  -9.2413
     6.3987   6.4024   6.6700   6.6817   7.7290   7.7635   8.3047   8.3477
     8.8314   8.8578   9.5985   9.6742  10.3873  10.4000  10.9795  10.9894
    11.3779  11.3874  11.7776  11.8011  11.9177  11.9407  12.0412  12.0730

          k = 0.2500 0.7217 0.0000 (  5270 PWs)   bands (ev):

   -33.7899 -33.7899 -33.7239 -33.7239 -33.2263 -33.2261 -33.1694 -33.1693
   -14.5947 -14.5804 -14.5427 -14.5240 -14.3398 -14.3350 -14.2869 -14.2736
   -10.6992 -10.6696 -10.6357 -10.5947 -10.3254 -10.3133 -10.2910 -10.2679
   -10.1349 -10.0993 -10.0844 -10.0525  -9.5122  -9.5040  -9.4431  -9.4343
     6.2015   6.2420   6.3715   6.4183   8.8680   8.9454   9.0578   9.1431
     9.8320   9.8424   9.9610   9.9771  10.2431  10.2775  10.3379  10.3810
    11.3208  11.3947  11.6430  11.6748  11.7286  11.7781  11.9287  12.0021

          k = 0.2500 0.7217 0.3132 (  5250 PWs)   bands (ev):

   -33.7894 -33.7894 -33.7233 -33.7233 -33.2269 -33.2267 -33.1700 -33.1698
   -14.5837 -14.5712 -14.5277 -14.5117 -14.3556 -14.3515 -14.2986 -14.2894
   -10.6821 -10.6611 -10.6142 -10.5778 -10.3265 -10.3160 -10.2935 -10.2792
   -10.1441 -10.1273 -10.0868 -10.0725  -9.5053  -9.4925  -9.4378  -9.4257
     6.3336   6.3691   6.5166   6.5475   8.8676   8.9393   9.0616   9.1907
     9.6098   9.6572   9.6892   9.7240  10.3231  10.3749  10.6235  10.6586
    10.9855  11.0321  11.0921  11.1338  11.8024  11.8491  11.9218  11.9521

          k = 0.2500 0.7217-0.6263 (  5252 PWs)   bands (ev):

   -33.7889 -33.7889 -33.7227 -33.7227 -33.2275 -33.2273 -33.1706 -33.1704
   -14.5685 -14.5551 -14.5114 -14.4952 -14.3757 -14.3703 -14.3151 -14.3100
   -10.6677 -10.6338 -10.5918 -10.5518 -10.3360 -10.3300 -10.3189 -10.2830
   -10.1454 -10.1371 -10.1119 -10.0955  -9.4965  -9.4783  -9.4330  -9.4153
     6.5712   6.5827   6.7349   6.7484   8.6603   8.6905   8.7314   8.7559
     9.5348   9.5847   9.7614   9.8166  10.4691  10.5102  10.6110  10.6295
    11.0836  11.1271  11.1632  11.1845  11.3691  11.3923  11.4314  11.4477

          k = 0.2500-1.0104 0.0000 (  5254 PWs)   bands (ev):

   -33.7783 -33.7783 -33.7122 -33.7122 -33.2162 -33.2162 -33.1595 -33.1595
   -14.5970 -14.5967 -14.5441 -14.5434 -14.3812 -14.3802 -14.3268 -14.3262
   -10.6832 -10.6809 -10.6086 -10.6051 -10.4343 -10.4173 -10.3980 -10.3752
   -10.1816 -10.1747 -10.1254 -10.1214  -9.6019  -9.5894  -9.5348  -9.5243
     6.5748   6.5832   6.7129   6.7186   9.2440   9.2790   9.3914   9.4171
     9.4852   9.5129   9.5386   9.5579  10.0430  10.0907  10.1442  10.1814
    11.2941  11.3241  11.4966  11.5518  11.7423  11.7776  11.9112  11.9216

          k = 0.2500-1.0104 0.3132 (  5260 PWs)   bands (ev):

   -33.7782 -33.7782 -33.7120 -33.7120 -33.2164 -33.2164 -33.1596 -33.1596
   -14.6010 -14.5960 -14.5475 -14.5366 -14.3940 -14.3833 -14.3314 -14.3263
   -10.7059 -10.7035 -10.6137 -10.6065 -10.4191 -10.4094 -10.3714 -10.3673
   -10.1961 -10.1802 -10.1318 -10.1009  -9.5951  -9.5677  -9.5293  -9.5050
     6.5865   6.5981   6.7029   6.7122   8.9885   9.0220   9.1902   9.2261
     9.5219   9.5308   9.5605   9.5739  10.4638  10.4985  10.5292  10.5571
    10.9224  10.9617  11.1575  11.1931  11.8485  11.8531  11.9674  11.9986

          k = 0.2500-1.0104-0.6263 (  5260 PWs)   bands (ev):

   -33.7781 -33.7781 -33.7118 -33.7118 -33.2166 -33.2166 -33.1597 -33.1597
   -14.6007 -14.6003 -14.5412 -14.5400 -14.3952 -14.3935 -14.3332 -14.3323
   -10.7265 -10.7060 -10.6361 -10.6050 -10.4079 -10.4058 -10.3688 -10.3506
   -10.1761 -10.1729 -10.1303 -10.1202  -9.5829  -9.5577  -9.5116  -9.4914
     6.6125   6.6282   6.6820   6.6977   8.7982   8.8067   8.8619   8.8685
     9.7478   9.7969   9.8481   9.9008  10.4773  10.5098  10.5424  10.5667
    11.2539  11.3030  11.3621  11.4008  11.6020  11.6234  11.6547  11.6650

          k = 0.2500-0.4330 0.0000 (  5251 PWs)   bands (ev):

   -33.7937 -33.7937 -33.7200 -33.7200 -33.2296 -33.2294 -33.1661 -33.1660
   -14.5961 -14.5859 -14.5425 -14.5204 -14.3759 -14.3737 -14.2471 -14.2337
   -10.6857 -10.6615 -10.6290 -10.5915 -10.4103 -10.3716 -10.2505 -10.2255
   -10.1603 -10.1107 -10.0392 -10.0026  -9.6303  -9.6073  -9.3447  -9.3373
     5.6651   5.7271   6.7637   6.8686   8.3633   8.5354   9.4351   9.4505
     9.9428  10.0987  10.1564  10.2052  10.2833  10.3299  10.7512  10.7743
    11.1942  11.2835  11.4326  11.4740  11.8308  11.8868  12.1369  12.1704

          k = 0.2500-0.4330 0.3132 (  5259 PWs)   bands (ev):

   -33.7930 -33.7930 -33.7197 -33.7196 -33.2305 -33.2303 -33.1664 -33.1663
   -14.5969 -14.5808 -14.5177 -14.4960 -14.3819 -14.3760 -14.2737 -14.2637
   -10.7141 -10.6348 -10.5972 -10.5642 -10.3980 -10.3448 -10.2694 -10.2251
   -10.1778 -10.1434 -10.0700 -10.0306  -9.6217  -9.5825  -9.3405  -9.3301
     6.0419   6.0834   6.7630   6.8253   8.3829   8.5359   9.2757   9.3362
     9.6358   9.6731  10.0494  10.1018  10.1619  10.2858  10.9174  10.9624
    11.0049  11.1487  11.2212  11.2435  11.4444  11.5820  12.1492  12.2410

          k = 0.2500-0.4330-0.6263 (  5266 PWs)   bands (ev):

   -33.7923 -33.7923 -33.7193 -33.7193 -33.2313 -33.2311 -33.1667 -33.1666
   -14.6019 -14.5790 -14.4792 -14.4653 -14.3899 -14.3822 -14.3023 -14.2987
   -10.7485 -10.6129 -10.5433 -10.5208 -10.3984 -10.3463 -10.2657 -10.2397
   -10.1997 -10.1917 -10.0685 -10.0490  -9.6226  -9.5519  -9.3389  -9.3295
     6.5494   6.5601   6.7632   6.7806   8.1654   8.2044   8.8968   8.9839
     9.5833   9.6276  10.0884  10.2260  10.4327  10.5269  10.6505  10.6784
    10.8204  10.9473  11.2826  11.4449  11.4855  11.5467  11.5809  11.6325

          k =-0.5000-0.2887 0.0000 (  5254 PWs)   bands (ev):

   -33.8014 -33.8014 -33.7355 -33.7355 -33.2362 -33.2362 -33.1792 -33.1792
   -14.5797 -14.5797 -14.5246 -14.5246 -14.2942 -14.2942 -14.2344 -14.2344
   -10.6809 -10.6809 -10.6202 -10.6202 -10.2282 -10.2282 -10.1603 -10.1603
   -10.0660 -10.0660 -10.0044 -10.0044  -9.4022  -9.4022  -9.3491  -9.3491
     5.7902   5.7902   5.9595   5.9595   8.5041   8.5041   8.6961   8.6961
    10.0994  10.0994  10.2251  10.2251  10.4613  10.4613  10.6325  10.6325
    11.4781  11.4781  11.7362  11.7362  12.0953  12.0954  12.1764  12.1764

          k =-0.5000-0.2887 0.3132 (  5256 PWs)   bands (ev):

   -33.8006 -33.8006 -33.7346 -33.7346 -33.2372 -33.2372 -33.1802 -33.1802
   -14.5616 -14.5492 -14.5011 -14.4974 -14.3238 -14.3155 -14.2658 -14.2550
   -10.6495 -10.6301 -10.5859 -10.5733 -10.2632 -10.2371 -10.1909 -10.1763
   -10.1175 -10.0659 -10.0536 -10.0122  -9.4026  -9.3910  -9.3526  -9.3399
     6.0498   6.0731   6.2666   6.2878   8.4493   8.5722   8.7444   8.8970
     9.3819   9.3985   9.4954   9.5344  10.6190  10.6954  10.8147  10.8624
    11.0055  11.0182  11.3193  11.3565  12.0296  12.0730  12.1910  12.2336

          k =-0.5000-0.2887-0.6263 (  5256 PWs)   bands (ev):

   -33.7998 -33.7998 -33.7336 -33.7336 -33.2382 -33.2382 -33.1812 -33.1812
   -14.5250 -14.5250 -14.4660 -14.4660 -14.3522 -14.3522 -14.2932 -14.2932
   -10.5873 -10.5873 -10.5278 -10.5278 -10.2953 -10.2953 -10.2277 -10.2277
   -10.1081 -10.1081 -10.0484 -10.0484  -9.3916  -9.3916  -9.3446  -9.3446
     6.4916   6.4916   6.7103   6.7103   8.2677   8.2677   8.4047   8.4047
     9.0533   9.0533   9.3746   9.3746  10.5210  10.5210  10.6195  10.6195
    11.3206  11.3206  11.4568  11.4568  11.6162  11.6162  11.6784  11.6784

          k =-0.5000 0.2887 0.0000 (  5253 PWs)   bands (ev):

   -33.7918 -33.7918 -33.7219 -33.7219 -33.2280 -33.2278 -33.1677 -33.1676
   -14.5958 -14.5820 -14.5430 -14.5224 -14.3626 -14.3585 -14.2620 -14.2500
   -10.6914 -10.6667 -10.6302 -10.5943 -10.3761 -10.3693 -10.2303 -10.2123
   -10.1772 -10.1454 -10.0357 -10.0239  -9.5884  -9.5670  -9.3781  -9.3733
     5.8404   5.9002   6.6398   6.7312   8.5220   8.6888   9.4857   9.5178
     9.6896   9.7916  10.1348  10.1574  10.2155  10.2904  10.4968  10.5757
    11.1733  11.2330  11.6467  11.6793  11.8663  11.9213  12.1046  12.1534

          k =-0.5000 0.2887 0.3132 (  5250 PWs)   bands (ev):

   -33.7913 -33.7912 -33.7214 -33.7214 -33.2287 -33.2285 -33.1681 -33.1680
   -14.5927 -14.5761 -14.5211 -14.5076 -14.3719 -14.3624 -14.2800 -14.2765
   -10.7008 -10.6538 -10.6056 -10.5735 -10.3755 -10.3401 -10.2455 -10.2263
   -10.1863 -10.1463 -10.0714 -10.0425  -9.5818  -9.5516  -9.3753  -9.3654
     6.1382   6.1721   6.6474   6.6996   8.6009   8.7368   9.2962   9.3247
     9.4864   9.5484   9.8451   9.9647  10.3554  10.4767  10.8192  10.8745
    10.9743  11.0509  11.1229  11.1349  11.4975  11.5813  12.1445  12.2097

          k =-0.5000 0.2887-0.6263 (  5272 PWs)   bands (ev):

   -33.7906 -33.7906 -33.7210 -33.7209 -33.2295 -33.2293 -33.1686 -33.1684
   -14.5883 -14.5692 -14.4920 -14.4784 -14.3835 -14.3767 -14.3074 -14.3045
   -10.7191 -10.6178 -10.5602 -10.5389 -10.3722 -10.3455 -10.2806 -10.2549
   -10.1903 -10.1683 -10.0810 -10.0649  -9.5779  -9.5220  -9.3680  -9.3652
     6.5677   6.5750   6.7301   6.7497   8.3037   8.3336   9.0140   9.0743
     9.3754   9.4295  10.0247  10.1878  10.5404  10.5533  10.6396  10.6888
    10.9493  11.0679  11.1081  11.1960  11.3927  11.4562  11.6109  11.6486

          k =-0.5000-1.4434 0.0000 (  5252 PWs)   bands (ev):

   -33.7783 -33.7783 -33.7122 -33.7122 -33.2162 -33.2162 -33.1595 -33.1595
   -14.5966 -14.5966 -14.5429 -14.5429 -14.3785 -14.3785 -14.3253 -14.3253
   -10.6758 -10.6758 -10.6077 -10.6077 -10.3991 -10.3991 -10.3410 -10.3410
   -10.2225 -10.2225 -10.1470 -10.1470  -9.6026  -9.6026  -9.5526  -9.5526
     6.5981   6.5981   6.7427   6.7427   9.4823   9.4823   9.6155   9.6155
     9.6879   9.6879   9.8169   9.8169  10.1918  10.1918  10.2834  10.2834
    11.0757  11.0757  11.2807  11.2807  11.8052  11.8052  11.9552  11.9552

          k =-0.5000-1.4434 0.3132 (  5244 PWs)   bands (ev):

   -33.7782 -33.7782 -33.7120 -33.7120 -33.2164 -33.2164 -33.1596 -33.1596
   -14.6005 -14.5949 -14.5470 -14.5345 -14.3926 -14.3794 -14.3322 -14.3256
   -10.7076 -10.6921 -10.6197 -10.5882 -10.3954 -10.3828 -10.3377 -10.3098
   -10.2456 -10.2160 -10.1661 -10.1344  -9.6000  -9.5773  -9.5461  -9.5253
     6.6214   6.6387   6.7255   6.7433   9.2685   9.3297   9.3911   9.4471
     9.8915   9.9371  10.0260  10.0645  10.3316  10.3564  10.4692  10.4995
    10.9906  11.0282  11.0881  11.1045  11.4693  11.4823  11.5449  11.5531

          k =-0.5000-1.4434-0.6263 (  5288 PWs)   bands (ev):

   -33.7781 -33.7781 -33.7118 -33.7118 -33.2166 -33.2166 -33.1597 -33.1597
   -14.5995 -14.5995 -14.5379 -14.5379 -14.3938 -14.3938 -14.3322 -14.3322
   -10.7218 -10.7218 -10.5979 -10.5979 -10.3847 -10.3847 -10.3255 -10.3255
   -10.2181 -10.2181 -10.1520 -10.1520  -9.5850  -9.5850  -9.5108  -9.5108
     6.6701   6.6701   6.7259   6.7259   9.1789   9.1789   9.2636   9.2636
    10.0559  10.0559  10.3016  10.3016  10.5135  10.5135  10.6418  10.6418
    10.9265  10.9265  11.0383  11.0383  11.1355  11.1355  11.2499  11.2499

          k = 0.0000-0.5773 0.3132 (  5250 PWs)   bands (ev):

   -33.7912 -33.7912 -33.7214 -33.7214 -33.2287 -33.2286 -33.1681 -33.1680
   -14.5916 -14.5742 -14.5190 -14.5044 -14.3721 -14.3636 -14.2836 -14.2793
   -10.7000 -10.6483 -10.6034 -10.5660 -10.3770 -10.3431 -10.2535 -10.2268
   -10.1877 -10.1481 -10.0763 -10.0498  -9.5818  -9.5504  -9.3712  -9.3610
     6.1977   6.2258   6.6867   6.7380   8.4376   8.5491   9.2912   9.3100
     9.4521   9.5208   9.8279   9.9579  10.3785  10.4987  10.8738  10.9310
    10.9587  11.0504  11.2260  11.2565  11.4868  11.5683  12.1527  12.2220

          k =-0.2500-0.1443 0.3132 (  5261 PWs)   bands (ev):

   -33.8041 -33.8041 -33.7310 -33.7310 -33.2407 -33.2406 -33.1767 -33.1766
   -14.5745 -14.5659 -14.4940 -14.4850 -14.3534 -14.3377 -14.2358 -14.2304
   -10.6810 -10.6345 -10.5680 -10.5641 -10.3597 -10.3583 -10.1438 -10.1105
   -10.0732 -10.0621 -10.0032  -9.9819  -9.5019  -9.4818  -9.2396  -9.2351
     5.6881   5.7115   6.4617   6.4882   8.0106   8.1078   8.9230   8.9685
     9.2340   9.2857   9.4111   9.4402  10.4799  10.5182  11.0645  11.0792
    11.3614  11.3989  11.6458  11.6802  12.2041  12.2439  12.2803  12.2857

          k =-0.2500-0.7217 0.3132 (  5250 PWs)   bands (ev):

   -33.7894 -33.7894 -33.7233 -33.7233 -33.2269 -33.2267 -33.1700 -33.1699
   -14.5818 -14.5673 -14.5265 -14.5101 -14.3574 -14.3539 -14.3013 -14.2904
   -10.6795 -10.6562 -10.6119 -10.5709 -10.3282 -10.3213 -10.2973 -10.2815
   -10.1488 -10.1318 -10.0924 -10.0737  -9.5026  -9.4888  -9.4365  -9.4236
     6.3804   6.4068   6.5560   6.5892   8.7074   8.7824   9.0004   9.1295
     9.6389   9.6798   9.6937   9.7285  10.3441  10.4104  10.6443  10.6840
    11.0673  11.1193  11.1581  11.2086  11.7479  11.7991  11.8641  11.9622

          k =-0.2500 1.0104 0.3132 (  5260 PWs)   bands (ev):

   -33.7782 -33.7782 -33.7120 -33.7120 -33.2164 -33.2164 -33.1596 -33.1596
   -14.6023 -14.5968 -14.5471 -14.5341 -14.3958 -14.3819 -14.3324 -14.3257
   -10.7109 -10.6781 -10.6472 -10.5926 -10.4172 -10.4092 -10.3708 -10.3652
   -10.1998 -10.1947 -10.1166 -10.1051  -9.5882  -9.5806  -9.5179  -9.5093
     6.5747   6.5991   6.6726   6.6955   9.1621   9.1788   9.2513   9.2772
     9.5425   9.5527   9.5942   9.6041  10.1993  10.2166  10.2923  10.3088
    11.2105  11.2622  11.5058  11.5815  11.7726  11.8461  11.9189  11.9574

          k =-0.2500 0.4330 0.3132 (  5259 PWs)   bands (ev):

   -33.7930 -33.7930 -33.7197 -33.7197 -33.2304 -33.2302 -33.1664 -33.1663
   -14.5983 -14.5818 -14.5204 -14.4991 -14.3818 -14.3745 -14.2704 -14.2611
   -10.7147 -10.6403 -10.6001 -10.5701 -10.3981 -10.3455 -10.2636 -10.2221
   -10.1738 -10.1404 -10.0630 -10.0256  -9.6222  -9.5840  -9.3435  -9.3345
     5.9813   6.0271   6.7626   6.8237   8.4688   8.6321   9.3218   9.3688
     9.6603   9.6862  10.0601  10.1041  10.1553  10.2781  10.8320  10.8673
    11.0030  11.1024  11.1340  11.1700  11.4421  11.5695  12.2041  12.2740

          k = 0.5000-0.2887 0.3132 (  5250 PWs)   bands (ev):

   -33.7912 -33.7912 -33.7214 -33.7214 -33.2287 -33.2285 -33.1682 -33.1680
   -14.5889 -14.5740 -14.5252 -14.5000 -14.3741 -14.3665 -14.2875 -14.2718
   -10.6975 -10.6388 -10.6066 -10.5682 -10.3762 -10.3474 -10.2559 -10.2404
   -10.1764 -10.1570 -10.0880 -10.0302  -9.5766  -9.5430  -9.3783  -9.3641
     6.1387   6.1851   6.7007   6.7665   8.5411   8.6986   9.2365   9.3042
     9.4981   9.5764   9.9397  10.0667  10.4013  10.5274  10.5787  10.6170
    11.0327  11.1017  11.2413  11.2670  11.5042  11.5834  12.0819  12.1450

     the Fermi energy is    10.4943 ev

!    total energy              =   -2240.08503825 Ry
     Harris-Foulkes estimate   =   -2240.08503841 Ry
     estimated scf accuracy    <       0.00000020 Ry

     total all-electron energy =    -90244.428441 Ry

     The total energy is the sum of the following terms:

     one-electron contribution =     -51.33246494 Ry
     hartree contribution      =      45.02573743 Ry
     xc contribution           =    -253.38091786 Ry
     ewald contribution        =    -232.31225637 Ry
     one-center paw contrib.   =   -1748.08098352 Ry
     smearing contrib. (-TS)   =      -0.00415299 Ry

     convergence has been achieved in  11 iterations

     Forces acting on atoms (cartesian axes, Ry/au):

     atom    1 type  1   force =    -0.04172200    0.03872924   -0.76999717
     atom    2 type  1   force =     0.15375280    0.12201148   -0.74198246
     atom    3 type  1   force =     0.00097087    0.00258139   -0.01600660
     atom    4 type  1   force =    -0.00417213   -0.00372696   -0.03386125
     atom    5 type  2   force =     0.04038240   -0.03936296    0.79330726
     atom    6 type  2   force =    -0.14921194   -0.12023220    0.76854021

     Total force =     1.564140     Total SCF correction =     0.001415

     Writing output data file 2406.save
 
     init_run     :      7.30s CPU      8.60s WALL (       1 calls)
     electrons    :    154.06s CPU    166.01s WALL (       1 calls)
     forces       :      2.32s CPU      2.39s WALL (       1 calls)

     Called by init_run:
     wfcinit      :      6.28s CPU      7.19s WALL (       1 calls)
     potinit      :      0.51s CPU      0.52s WALL (       1 calls)

     Called by electrons:
     c_bands      :    129.12s CPU    138.01s WALL (      11 calls)
     sum_band     :     18.21s CPU     19.41s WALL (      11 calls)
     v_of_rho     :      0.14s CPU      0.15s WALL (      12 calls)
     newd         :      1.86s CPU      2.39s WALL (      12 calls)
     PAW_pot      :      5.05s CPU      5.55s WALL (      12 calls)
     mix_rho      :      0.13s CPU      0.13s WALL (      11 calls)

     Called by c_bands:
     init_us_2    :      0.76s CPU      0.77s WALL (     864 calls)
     cegterg      :    110.80s CPU    118.65s WALL (     396 calls)

     Called by sum_band:
     sum_band:bec :      1.75s CPU      1.75s WALL (     396 calls)
     addusdens    :      1.23s CPU      1.61s WALL (      11 calls)

     Called by *egterg:
     h_psi        :     73.81s CPU     79.81s WALL (    1785 calls)
     s_psi        :      7.27s CPU      7.68s WALL (    1785 calls)
     g_psi        :      0.56s CPU      0.60s WALL (    1353 calls)
     cdiaghg      :     10.82s CPU     11.50s WALL (    1749 calls)

     Called by h_psi:
     h_psi:pot    :     72.93s CPU     78.88s WALL (    1785 calls)
     h_psi:calbec :      6.56s CPU      7.17s WALL (    1785 calls)
     vloc_psi     :     59.06s CPU     64.33s WALL (    1785 calls)
     add_vuspsi   :      7.30s CPU      7.38s WALL (    1785 calls)

     General routines
     calbec       :      9.55s CPU     10.32s WALL (    2325 calls)
     fft          :      0.23s CPU      0.39s WALL (     235 calls)
     fftw         :     58.70s CPU     64.01s WALL (  287692 calls)
     davcio       :      0.00s CPU      0.04s WALL (      36 calls)
 
     Parallel routines
     fft_scatter  :     23.48s CPU     27.14s WALL (  287927 calls)
 
     PWSCF        :  2m44.69s CPU     5m18.24s WALL

 
   This run was terminated on:  13:47:50  30Nov2022            

=------------------------------------------------------------------------------=
   JOB DONE.
=------------------------------------------------------------------------------=
Removing 2406 from /home/shaharpit/tmp
