
     Program PWSCF v.6.1 (svn rev. 13369) starts on 16Nov2022 at 10:56:57 

     This program is part of the open-source Quantum ESPRESSO suite
     for quantum simulation of materials; please cite
         "P. Giannozzi et al., J. Phys.:Condens. Matter 21 395502 (2009);
          URL http://www.quantum-espresso.org", 
     in publications or presentations arising from this work. More details at
     http://www.quantum-espresso.org/quote

     Parallel version (MPI), running on    32 processors
     R & G space division:  proc/nbgrp/npool/nimage =      32
     Reading input from ./hcp_125_1.in
Warning: card &IONS ignored
Warning: card 	ION_DYNAMICS='BFGS', ignored
Warning: card / ignored
Warning: card &CELL ignored
Warning: card / ignored

     Current dimensions of program PWSCF are:
     Max number of different atomic species (ntypx) = 10
     Max number of k-points (npk) =  40000
     Max angular momentum in pseudopotentials (lmaxx) =  3
               file Gd.rel-pbe-spdn-kjpaw_psl.1.0.0.UPF: wavefunction(s)  5P 5P renormalized
               file H.pbe-kjpaw_psl.0.1.UPF: wavefunction(s)  1S renormalized

     Subspace diagonalization in iterative solution of the eigenvalue problem:
     a serial algorithm will be used

 
     Parallelization info
     --------------------
     sticks:   dense  smooth     PW     G-vecs:    dense   smooth      PW
     Min          40      40     12                 1314     1314     220
     Max          41      41     13                 1319     1319     225
     Sum        1287    1287    397                42147    42147    7103
 


     bravais-lattice index     =            0
     lattice parameter (alat)  =      13.6588  a.u.
     unit-cell volume          =     880.8636 (a.u.)^3
     number of atoms/cell      =           14
     number of atomic types    =            2
     number of electrons       =        54.00
     number of Kohn-Sham states=           64
     kinetic-energy cutoff     =      50.0000  Ry
     charge density cutoff     =     200.0000  Ry
     convergence threshold     =      1.0E-06
     mixing beta               =       0.7000
     number of iterations used =            8  plain     mixing
     Exchange-correlation      =  SLA  PW   PBX  PBC ( 1  4  3  4 0 0)
     Non magnetic calculation with spin-orbit


     celldm(1)=  13.658752  celldm(2)=   0.000000  celldm(3)=   0.000000
     celldm(4)=   0.000000  celldm(5)=   0.000000  celldm(6)=   0.000000

     crystal axes: (cart. coord. in units of alat)
               a(1) = (   1.000000   0.000000   0.000000 )  
               a(2) = (  -0.250003   0.433017   0.000000 )  
               a(3) = (   0.000000   0.000000   0.798309 )  

     reciprocal axes: (cart. coord. in units 2 pi/alat)
               b(1) = (  1.000000  0.577353  0.000000 )  
               b(2) = (  0.000000  2.309381  0.000000 )  
               b(3) = (  0.000000  0.000000  1.252647 )  


     PseudoPot. # 1 for Gd read from file:
     /home/shaharpit/MeamGdH/dft/qe_potentials/Gd.rel-pbe-spdn-kjpaw_psl.1.0.0.UPF
     MD5 check sum: cf50ec46d1536b4a0251694df1946a53
     Pseudo is Projector augmented-wave + core cor, Zval = 11.0
     Generated using "atomic" code by A. Dal Corso  v.6.2.2
     Shape of augmentation charge: PSQ
     Using radial grid of 1263 points, 10 beta functions with: 
                l(1) =   0
                l(2) =   0
                l(3) =   1
                l(4) =   1
                l(5) =   1
                l(6) =   1
                l(7) =   2
                l(8) =   2
                l(9) =   2
               l(10) =   2
     Q(r) pseudized with 0 coefficients 


     PseudoPot. # 2 for  H read from file:
     /home/shaharpit/MeamGdH/dft/qe_potentials/H.pbe-kjpaw_psl.0.1.UPF
     MD5 check sum: fbb168fef676c0aaadbafd73f5b1efa8
     Pseudo is Projector augmented-wave, Zval =  1.0
     Generated using "atomic" code by A. Dal Corso  v.5.0.2 svn rev. 9415
     Shape of augmentation charge: PSQ
     Using radial grid of  929 points,  2 beta functions with: 
                l(1) =   0
                l(2) =   0
     Q(r) pseudized with 0 coefficients 


     atomic species   valence    mass     pseudopotential
        Gd            11.00   157.25000     Gd( 1.00)
        H              1.00     1.00794      H( 1.00)

     No symmetry found



   Cartesian axes

     site n.     atom                  positions (alat units)
         1           Gd  tau(   1) = (   0.2499738   0.1443244   0.5987320  )
         2           Gd  tau(   2) = (   0.7499738   0.1443244   0.5987320  )
         3           Gd  tau(   3) = (   0.0000227   0.2886921   0.1995773  )
         4           Gd  tau(   4) = (   0.5000227   0.2886921   0.1995773  )
         5           H   tau(   5) = (   0.2603489   0.1351878   0.7734021  )
         6           H   tau(   6) = (   0.7141741   0.1153989   0.7679736  )
         7           H   tau(   7) = (   0.7240968   0.3952575   0.4070579  )
         8           H   tau(   8) = (   0.2676216   0.4208487   0.3987555  )
         9           H   tau(   9) = (  -0.0020534   0.4258284   0.2957736  )
        10           H   tau(  10) = (   0.7594248   0.0214343   0.2383752  )
        11           H   tau(  11) = (  -0.0314513   0.1687898   0.6524582  )
        12           H   tau(  12) = (   0.5425737   0.1587005   0.6760083  )
        13           H   tau(  13) = (   0.7480222   0.3541642   0.0562808  )
        14           H   tau(  14) = (   0.2942721   0.3585810   0.0582766  )

     number of k points=    36  gaussian smearing, width (Ry)=  0.0100
                       cart. coord. in units 2pi/alat
        k(    1) = (   0.0000000   0.0000000   0.0000000), wk =   0.0156250
        k(    2) = (   0.0000000   0.0000000   0.3131618), wk =   0.0312500
        k(    3) = (   0.0000000   0.0000000  -0.6263236), wk =   0.0156250
        k(    4) = (   0.0000000   0.5773452   0.0000000), wk =   0.0312500
        k(    5) = (   0.0000000   0.5773452   0.3131618), wk =   0.0312500
        k(    6) = (   0.0000000   0.5773452  -0.6263236), wk =   0.0312500
        k(    7) = (   0.0000000  -1.1546904   0.0000000), wk =   0.0156250
        k(    8) = (   0.0000000  -1.1546904   0.3131618), wk =   0.0312500
        k(    9) = (   0.0000000  -1.1546904  -0.6263236), wk =   0.0156250
        k(   10) = (   0.2500000   0.1443383   0.0000000), wk =   0.0312500
        k(   11) = (   0.2500000   0.1443383   0.3131618), wk =   0.0312500
        k(   12) = (   0.2500000   0.1443383  -0.6263236), wk =   0.0312500
        k(   13) = (   0.2500000   0.7216835   0.0000000), wk =   0.0312500
        k(   14) = (   0.2500000   0.7216835   0.3131618), wk =   0.0312500
        k(   15) = (   0.2500000   0.7216835  -0.6263236), wk =   0.0312500
        k(   16) = (   0.2500000  -1.0103521   0.0000000), wk =   0.0312500
        k(   17) = (   0.2500000  -1.0103521   0.3131618), wk =   0.0312500
        k(   18) = (   0.2500000  -1.0103521  -0.6263236), wk =   0.0312500
        k(   19) = (   0.2500000  -0.4330069   0.0000000), wk =   0.0312500
        k(   20) = (   0.2500000  -0.4330069   0.3131618), wk =   0.0312500
        k(   21) = (   0.2500000  -0.4330069  -0.6263236), wk =   0.0312500
        k(   22) = (  -0.5000000  -0.2886766   0.0000000), wk =   0.0156250
        k(   23) = (  -0.5000000  -0.2886766   0.3131618), wk =   0.0312500
        k(   24) = (  -0.5000000  -0.2886766  -0.6263236), wk =   0.0156250
        k(   25) = (  -0.5000000   0.2886686   0.0000000), wk =   0.0312500
        k(   26) = (  -0.5000000   0.2886686   0.3131618), wk =   0.0312500
        k(   27) = (  -0.5000000   0.2886686  -0.6263236), wk =   0.0312500
        k(   28) = (  -0.5000000  -1.4433670   0.0000000), wk =   0.0156250
        k(   29) = (  -0.5000000  -1.4433670   0.3131618), wk =   0.0312500
        k(   30) = (  -0.5000000  -1.4433670  -0.6263236), wk =   0.0156250
        k(   31) = (   0.0000000  -0.5773452   0.3131618), wk =   0.0312500
        k(   32) = (  -0.2500000  -0.1443383   0.3131618), wk =   0.0312500
        k(   33) = (  -0.2500000  -0.7216835   0.3131618), wk =   0.0312500
        k(   34) = (  -0.2500000   1.0103521   0.3131618), wk =   0.0312500
        k(   35) = (  -0.2500000   0.4330069   0.3131618), wk =   0.0312500
        k(   36) = (   0.5000000  -0.2886686   0.3131618), wk =   0.0312500

     Dense  grid:    42147 G-vectors     FFT dimensions: (  64,  32,  50)

     Estimated max dynamical RAM per process >      19.61MB

     Estimated total allocated dynamical RAM >     627.64MB

     Initial potential from superposition of free atoms

     starting charge   53.92372, renormalised to   54.00000
     Starting wfc are  124 randomized atomic wfcs
     Checking if some PAW data can be deallocated... 

     total cpu time spent up to now is        7.2 secs

     per-process dynamical memory:    65.9 Mb

     Self-consistent Calculation

     iteration #  1     ecut=    50.00 Ry     beta=0.70
     Davidson diagonalization with overlap
     ethr =  1.00E-02,  avg # of iterations =  2.0

     total cpu time spent up to now is       15.0 secs

     total energy              =   -2248.24998125 Ry
     Harris-Foulkes estimate   =   -2248.89252677 Ry
     estimated scf accuracy    <       1.12422502 Ry

     iteration #  2     ecut=    50.00 Ry     beta=0.70
     Davidson diagonalization with overlap
     ethr =  2.08E-03,  avg # of iterations =  3.5

     total cpu time spent up to now is       24.4 secs

     total energy              =   -2248.08568081 Ry
     Harris-Foulkes estimate   =   -2248.75665123 Ry
     estimated scf accuracy    <       1.31100715 Ry

     iteration #  3     ecut=    50.00 Ry     beta=0.70
     Davidson diagonalization with overlap
     ethr =  2.08E-03,  avg # of iterations =  3.8

     total cpu time spent up to now is       33.6 secs

     total energy              =   -2248.42335243 Ry
     Harris-Foulkes estimate   =   -2248.67527074 Ry
     estimated scf accuracy    <       0.78079741 Ry

     iteration #  4     ecut=    50.00 Ry     beta=0.70
     Davidson diagonalization with overlap
     ethr =  1.45E-03,  avg # of iterations =  2.8

     total cpu time spent up to now is       41.2 secs

     total energy              =   -2248.51917428 Ry
     Harris-Foulkes estimate   =   -2248.53768667 Ry
     estimated scf accuracy    <       0.04474606 Ry

     iteration #  5     ecut=    50.00 Ry     beta=0.70
     Davidson diagonalization with overlap
     ethr =  8.29E-05,  avg # of iterations =  4.6

     total cpu time spent up to now is       51.0 secs

     total energy              =   -2248.52861836 Ry
     Harris-Foulkes estimate   =   -2248.53110498 Ry
     estimated scf accuracy    <       0.00668666 Ry

     iteration #  6     ecut=    50.00 Ry     beta=0.70
     Davidson diagonalization with overlap
     ethr =  1.24E-05,  avg # of iterations =  4.2

     total cpu time spent up to now is       60.8 secs

     total energy              =   -2248.52967420 Ry
     Harris-Foulkes estimate   =   -2248.53037701 Ry
     estimated scf accuracy    <       0.00178815 Ry

     iteration #  7     ecut=    50.00 Ry     beta=0.70
     Davidson diagonalization with overlap
     ethr =  3.31E-06,  avg # of iterations =  3.0

     total cpu time spent up to now is       69.4 secs

     total energy              =   -2248.53001482 Ry
     Harris-Foulkes estimate   =   -2248.53009214 Ry
     estimated scf accuracy    <       0.00018265 Ry

     iteration #  8     ecut=    50.00 Ry     beta=0.70
     Davidson diagonalization with overlap
     ethr =  3.38E-07,  avg # of iterations =  3.3

     total cpu time spent up to now is       77.6 secs

     total energy              =   -2248.53004499 Ry
     Harris-Foulkes estimate   =   -2248.53008465 Ry
     estimated scf accuracy    <       0.00010094 Ry

     iteration #  9     ecut=    50.00 Ry     beta=0.70
     Davidson diagonalization with overlap
     ethr =  1.87E-07,  avg # of iterations =  2.8

     total cpu time spent up to now is       85.2 secs

     total energy              =   -2248.53006409 Ry
     Harris-Foulkes estimate   =   -2248.53006633 Ry
     estimated scf accuracy    <       0.00000569 Ry

     iteration # 10     ecut=    50.00 Ry     beta=0.70
     Davidson diagonalization with overlap
     ethr =  1.05E-08,  avg # of iterations =  2.7

     total cpu time spent up to now is       93.1 secs

     End of self-consistent calculation

          k = 0.0000 0.0000 0.0000 (  5289 PWs)   bands (ev):

   -33.0488 -33.0488 -32.6137 -32.6137 -32.5600 -32.5600 -31.8689 -31.8689
   -14.2219 -14.2219 -13.8137 -13.8137 -13.6791 -13.6791 -13.1656 -13.1656
   -10.4651 -10.4651 -10.0896 -10.0896  -9.9503  -9.9503  -9.5554  -9.5554
    -9.2533  -9.2533  -8.9397  -8.9397  -8.7218  -8.7218  -8.3153  -8.3153
     3.1799   3.1799   5.6765   5.6765   6.2120   6.2120   6.4361   6.4361
     6.7045   6.7045   7.6067   7.6067   8.3559   8.3559   8.8524   8.8524
     9.2230   9.2230  10.0076  10.0076  10.6577  10.6577  11.5733  11.5733
    12.4141  12.4141  12.5824  12.5824  13.1299  13.1299  13.5241  13.5241

          k = 0.0000 0.0000 0.3132 (  5279 PWs)   bands (ev):

   -33.0474 -33.0474 -32.6129 -32.6129 -32.5614 -32.5614 -31.8698 -31.8698
   -14.2170 -14.2025 -13.8182 -13.7809 -13.7079 -13.6783 -13.1847 -13.1727
   -10.4813 -10.4320 -10.1283 -10.0204  -9.9701  -9.8890  -9.5915  -9.5562
    -9.2815  -9.2357  -8.9514  -8.8989  -8.8033  -8.7384  -8.3235  -8.3161
     3.5797   3.6253   5.4695   5.5313   5.8403   5.8764   6.2948   6.3313
     7.0935   7.1177   7.3917   7.4236   8.2908   8.3162   8.7483   8.8592
     9.1060   9.2751  10.0513  10.0787  10.7928  10.8405  11.7207  11.7445
    12.0728  12.1699  12.3464  12.3982  13.0471  13.0835  13.2317  13.2954

          k = 0.0000 0.0000-0.6263 (  5252 PWs)   bands (ev):

   -33.0461 -33.0461 -32.6121 -32.6121 -32.5629 -32.5629 -31.8707 -31.8707
   -14.1980 -14.1980 -13.7851 -13.7851 -13.7065 -13.7065 -13.1923 -13.1923
   -10.4546 -10.4546 -10.0626 -10.0626  -9.8964  -9.8964  -9.5957  -9.5957
    -9.2629  -9.2629  -8.9259  -8.9259  -8.8049  -8.8049  -8.3239  -8.3239
     4.4968   4.4968   4.7956   4.7956   5.8121   5.8121   5.9931   5.9931
     6.8493   6.8493   8.0785   8.0785   8.2796   8.2796   8.4710   8.4710
     9.2067   9.2067  10.0308  10.0308  10.9802  10.9802  11.9569  11.9569
    12.0952  12.0952  12.3689  12.3689  12.6094  12.6094  12.9341  12.9341

          k = 0.0000 0.5773 0.0000 (  5253 PWs)   bands (ev):

   -33.0342 -33.0341 -32.6034 -32.6032 -32.5466 -32.5464 -31.8586 -31.8584
   -14.2480 -14.2391 -13.8416 -13.8296 -13.7408 -13.7337 -13.2028 -13.1973
   -10.5036 -10.4846 -10.1606 -10.1051 -10.0097  -9.9579  -9.6472  -9.6149
    -9.3144  -9.2948  -8.9971  -8.9847  -8.8370  -8.7999  -8.5336  -8.5102
     4.2273   4.2916   5.7352   5.8497   5.9928   6.0976   6.4105   6.4386
     6.8413   6.9779   7.5990   7.7262   7.8306   7.9457   8.2507   8.5476
     8.9989   9.2775   9.9801  10.0985  11.1604  11.1966  11.4850  11.5063
    12.3042  12.3895  12.6047  12.7024  12.9029  13.0308  13.4190  13.4761

          k = 0.0000 0.5773 0.3132 (  5250 PWs)   bands (ev):

   -33.0335 -33.0333 -32.6021 -32.6019 -32.5483 -32.5481 -31.8591 -31.8589
   -14.2415 -14.2246 -13.8435 -13.8106 -13.7680 -13.7410 -13.2114 -13.2060
   -10.5039 -10.4655 -10.1934 -10.0789 -10.0095  -9.9433  -9.6515  -9.6119
    -9.3339  -9.2894  -9.0217  -8.9500  -8.8682  -8.7950  -8.5221  -8.4998
     4.5557   4.5974   5.7346   5.7743   5.8859   6.0158   6.3716   6.4324
     6.5297   6.5680   7.6511   7.8041   8.0871   8.1651   8.3665   8.5568
     8.9703   9.2055   9.5992   9.6581  11.0634  11.1179  11.6709  11.7114
    12.2842  12.3693  12.6728  12.7047  13.1830  13.2835  13.5655  13.6893

          k = 0.0000 0.5773-0.6263 (  5272 PWs)   bands (ev):

   -33.0328 -33.0327 -32.6004 -32.6003 -32.5502 -32.5500 -31.8596 -31.8594
   -14.2424 -14.2263 -13.8264 -13.8192 -13.7646 -13.7593 -13.2122 -13.2091
   -10.5182 -10.4573 -10.1740 -10.1225  -9.9594  -9.9384  -9.6349  -9.5850
    -9.3462  -9.2899  -9.0228  -8.9605  -8.8847  -8.8367  -8.5081  -8.4769
     4.8444   4.9375   5.4018   5.4462   5.8979   6.0086   6.2907   6.3645
     6.6684   6.7173   7.7199   7.7919   7.9029   8.0042   8.4103   8.5677
     8.8824   9.1173   9.7643   9.9129  11.1484  11.2162  11.5745  11.6215
    12.4235  12.5142  12.7612  12.7749  13.0572  13.0886  13.3251  13.3472

          k = 0.0000-1.1547 0.0000 (  5284 PWs)   bands (ev):

   -33.0203 -33.0203 -32.5927 -32.5927 -32.5326 -32.5326 -31.8477 -31.8477
   -14.2828 -14.2828 -13.8813 -13.8813 -13.7816 -13.7816 -13.2316 -13.2316
   -10.5316 -10.5316 -10.1881 -10.1881 -10.0581 -10.0581  -9.6820  -9.6820
    -9.3216  -9.3216  -9.0184  -9.0184  -8.8974  -8.8974  -8.6503  -8.6503
     5.0871   5.0871   5.8683   5.8683   6.0810   6.0810   6.3294   6.3294
     6.5173   6.5173   6.7484   6.7484   7.7421   7.7421   8.6599   8.6599
     9.1919   9.1919  10.2275  10.2275  10.7756  10.7756  11.9686  11.9686
    12.1751  12.1751  12.3591  12.3591  13.6421  13.6421  14.4576  14.4576

          k = 0.0000-1.1547 0.3132 (  5252 PWs)   bands (ev):

   -33.0202 -33.0202 -32.5908 -32.5908 -32.5344 -32.5344 -31.8478 -31.8478
   -14.2909 -14.2874 -13.8881 -13.8693 -13.7996 -13.7802 -13.2344 -13.2303
   -10.5469 -10.5205 -10.2469 -10.1702 -10.0787 -10.0112  -9.6731  -9.6363
    -9.3413  -9.3056  -9.0493  -8.9963  -8.9497  -8.8557  -8.6485  -8.5923
     5.0940   5.1029   5.4663   5.4837   5.7380   5.7793   6.2341   6.2824
     6.8936   7.0577   7.3617   7.4094   7.5616   7.6649   8.6520   8.7405
     9.2888   9.4145   9.9193  10.0064  10.8082  10.8726  11.7270  11.8184
    12.0034  12.0624  12.4412  12.4912  13.6578  13.6836  14.2611  14.3246

          k = 0.0000-1.1547-0.6263 (  5272 PWs)   bands (ev):

   -33.0201 -33.0201 -32.5888 -32.5888 -32.5364 -32.5364 -31.8479 -31.8479
   -14.2954 -14.2954 -13.8784 -13.8784 -13.7959 -13.7959 -13.2333 -13.2333
   -10.5363 -10.5363 -10.2391 -10.2391 -10.0206 -10.0206  -9.6283  -9.6283
    -9.3249  -9.3249  -9.0450  -9.0450  -8.8912  -8.8912  -8.5897  -8.5897
     5.0421   5.0421   5.3742   5.3742   5.6577   5.6577   6.1122   6.1122
     6.8114   6.8114   7.8831   7.8831   8.1403   8.1403   8.8145   8.8145
     9.1434   9.1434   9.6523   9.6523  10.8919  10.8919  11.6742  11.6742
    12.3061  12.3061  12.6459  12.6459  13.4561  13.4561  13.6984  13.6984

          k = 0.2500 0.1443 0.0000 (  5279 PWs)   bands (ev):

   -33.0481 -33.0480 -32.6136 -32.6136 -32.5605 -32.5605 -31.8694 -31.8694
   -14.2185 -14.2163 -13.8069 -13.7999 -13.6846 -13.6801 -13.1709 -13.1694
   -10.4625 -10.4482 -10.0926 -10.0555  -9.9580  -9.9116  -9.5981  -9.5650
    -9.2387  -9.2245  -8.9302  -8.9172  -8.7734  -8.7626  -8.3724  -8.3584
     3.5000   3.5705   5.4902   5.6617   6.0138   6.0751   6.4926   6.5064
     7.0636   7.2248   7.4863   7.5424   8.1127   8.2103   8.4848   8.5673
     9.2952   9.4248   9.8902   9.9324  10.7877  10.8440  11.5527  11.5876
    12.2185  12.2393  12.5331  12.6042  12.8433  12.8996  13.1501  13.2029

          k = 0.2500 0.1443 0.3132 (  5261 PWs)   bands (ev):

   -33.0468 -33.0468 -32.6127 -32.6127 -32.5620 -32.5620 -31.8703 -31.8703
   -14.2111 -14.1973 -13.8082 -13.7676 -13.7168 -13.6835 -13.1881 -13.1762
   -10.4635 -10.4179 -10.1197 -10.0108  -9.9424  -9.8903  -9.6011  -9.5785
    -9.2734  -9.2329  -8.9563  -8.8942  -8.8215  -8.7546  -8.3828  -8.3618
     3.9107   3.9857   5.4636   5.5959   5.8074   5.8884   6.3197   6.3832
     6.9531   7.0417   7.4655   7.5852   8.1615   8.2430   8.5194   8.5868
     9.3229   9.5145   9.7908   9.8329  10.8445  10.9094  11.8155  11.8910
    11.9596  12.0091  12.1113  12.1555  12.8798  12.9170  13.1069  13.2024

          k = 0.2500 0.1443-0.6263 (  5254 PWs)   bands (ev):

   -33.0455 -33.0455 -32.6117 -32.6117 -32.5637 -32.5636 -31.8713 -31.8713
   -14.1902 -14.1881 -13.7846 -13.7829 -13.7100 -13.7077 -13.1945 -13.1927
   -10.4336 -10.4218 -10.0711 -10.0605  -9.9089  -9.8810  -9.6015  -9.5835
    -9.2693  -9.2487  -8.9639  -8.9337  -8.8169  -8.7945  -8.3779  -8.3658
     4.7170   4.7782   5.0563   5.0917   5.7193   5.7965   5.9078   5.9879
     6.8422   6.9163   7.9346   8.0223   8.1067   8.2425   8.4037   8.4311
     9.0968   9.2957   9.8845   9.9663  11.0753  11.1402  11.8021  11.8274
    11.9684  12.0421  12.2385  12.2917  12.3776  12.4366  12.8364  12.8865

          k = 0.2500 0.7217 0.0000 (  5270 PWs)   bands (ev):

   -33.0339 -33.0337 -32.6031 -32.6030 -32.5469 -32.5468 -31.8589 -31.8587
   -14.2494 -14.2406 -13.8398 -13.8290 -13.7360 -13.7309 -13.2058 -13.2004
   -10.4940 -10.4827 -10.1356 -10.1051 -10.0092  -9.9534  -9.6630  -9.6313
    -9.2787  -9.2597  -8.9902  -8.9452  -8.8865  -8.8506  -8.5703  -8.5270
     4.8060   4.8451   5.2297   5.3814   6.1536   6.1859   6.5110   6.5347
     6.7110   6.7865   7.5090   7.6225   7.7024   7.7535   8.2580   8.4675
     9.1474   9.2871   9.8579   9.9271  11.2336  11.2678  11.5348  11.5636
    12.1258  12.1629  12.3635  12.4663  12.7969  12.9496  13.2785  13.3469

          k = 0.2500 0.7217 0.3132 (  5250 PWs)   bands (ev):

   -33.0332 -33.0330 -32.6017 -32.6016 -32.5486 -32.5485 -31.8595 -31.8593
   -14.2419 -14.2261 -13.8441 -13.8153 -13.7601 -13.7369 -13.2139 -13.2076
   -10.4864 -10.4558 -10.1783 -10.0983 -10.0036  -9.9501  -9.6556  -9.6067
    -9.2986  -9.2651  -9.0165  -8.9654  -8.8807  -8.8268  -8.5539  -8.5194
     5.0002   5.0090   5.4580   5.5546   5.9394   5.9997   6.2722   6.3399
     6.5412   6.6156   7.6654   7.7770   7.8996   8.0217   8.4300   8.5167
     8.9778   9.0675   9.6526   9.7509  11.1489  11.1758  11.6554  11.6887
    12.1515  12.1640  12.3620  12.3859  12.9530  13.0390  13.3705  13.4457

          k = 0.2500 0.7217-0.6263 (  5252 PWs)   bands (ev):

   -33.0326 -33.0324 -32.6001 -32.5999 -32.5505 -32.5504 -31.8600 -31.8598
   -14.2435 -14.2290 -13.8253 -13.8157 -13.7632 -13.7575 -13.2144 -13.2110
   -10.4865 -10.4476 -10.1876 -10.1307  -9.9627  -9.9328  -9.6288  -9.5733
    -9.3118  -9.2840  -9.0389  -9.0082  -8.8537  -8.8438  -8.5501  -8.4954
     5.1528   5.2427   5.5073   5.5315   5.7988   5.8586   5.9614   6.0613
     6.8035   6.8935   7.6940   7.7693   7.9164   8.1990   8.2399   8.3070
     9.1877   9.3416   9.6575   9.7100  11.2032  11.2536  11.4773  11.5151
    12.1127  12.2040  12.5891  12.6224  12.7854  12.8103  12.9154  12.9977

          k = 0.2500-1.0104 0.0000 (  5254 PWs)   bands (ev):

   -33.0203 -33.0203 -32.5927 -32.5927 -32.5325 -32.5325 -31.8478 -31.8478
   -14.2809 -14.2789 -13.8829 -13.8807 -13.7793 -13.7772 -13.2300 -13.2293
   -10.5311 -10.5270 -10.1930 -10.1730 -10.0589 -10.0348  -9.6680  -9.6651
    -9.3256  -9.3105  -9.0557  -9.0397  -8.9234  -8.9163  -8.6811  -8.6662
     5.3053   5.3448   5.9807   5.9984   6.1018   6.1350   6.3252   6.3993
     6.5223   6.5823   6.8670   6.9974   7.7006   7.7300   8.3602   8.4956
     8.9975   9.0216  10.0877  10.1099  10.9483  10.9983  11.8534  11.9182
    12.1252  12.2301  12.3198  12.3629  13.2163  13.2650  14.0039  14.0675

          k = 0.2500-1.0104 0.3132 (  5260 PWs)   bands (ev):

   -33.0202 -33.0202 -32.5909 -32.5908 -32.5344 -32.5344 -31.8478 -31.8478
   -14.2890 -14.2832 -13.8863 -13.8705 -13.7954 -13.7788 -13.2327 -13.2282
   -10.5429 -10.5200 -10.2341 -10.1740 -10.0635 -10.0043  -9.6610  -9.6144
    -9.3475  -9.2994  -9.0634  -9.0337  -8.9878  -8.8758  -8.6646  -8.6128
     5.2928   5.3309   5.6427   5.6986   5.8957   5.9298   6.2365   6.3400
     6.8116   6.9744   7.4240   7.5581   7.6125   7.7601   8.4309   8.5800
     8.8767   9.0176   9.7502   9.9061  10.9222  10.9590  11.5045  11.5977
    12.0580  12.1540  12.5819  12.6039  13.3152  13.3961  13.7983  13.8565

          k = 0.2500-1.0104-0.6263 (  5260 PWs)   bands (ev):

   -33.0201 -33.0201 -32.5888 -32.5888 -32.5364 -32.5364 -31.8479 -31.8479
   -14.2932 -14.2899 -13.8823 -13.8738 -13.7956 -13.7911 -13.2321 -13.2311
   -10.5406 -10.5311 -10.2391 -10.2100 -10.0317 -10.0046  -9.6240  -9.5950
    -9.3541  -9.3104  -9.0772  -9.0478  -8.9453  -8.9106  -8.6068  -8.6011
     5.2770   5.3347   5.5497   5.5897   5.7865   5.8311   6.2066   6.2732
     6.7986   6.8692   7.7417   7.8135   7.9947   8.1621   8.4477   8.5812
     8.8658   8.9127   9.4504   9.5413  10.9655  11.0623  11.3159  11.4015
    12.1593  12.2254  12.6263  12.7130  13.0877  13.1184  13.5164  13.6207

          k = 0.2500-0.4330 0.0000 (  5251 PWs)   bands (ev):

   -33.0347 -33.0345 -32.6033 -32.6032 -32.5463 -32.5462 -31.8584 -31.8582
   -14.2528 -14.2420 -13.8475 -13.8394 -13.7308 -13.7228 -13.1996 -13.1951
   -10.5062 -10.4891 -10.1508 -10.1155  -9.9824  -9.9560  -9.6431  -9.5951
    -9.3115  -9.2792  -9.0459  -9.0194  -8.8419  -8.8223  -8.5153  -8.4990
     4.0773   4.1553   5.9622   6.0140   6.2018   6.2812   6.5150   6.6145
     7.0241   7.1109   7.3063   7.4404   7.8047   7.8814   8.3494   8.5903
     8.7804   8.9863   9.9830  10.0951  11.1907  11.2651  11.3735  11.3972
    12.4065  12.4886  12.6055  12.6643  12.9445  12.9987  13.3244  13.3707

          k = 0.2500-0.4330 0.3132 (  5259 PWs)   bands (ev):

   -33.0340 -33.0338 -32.6019 -32.6017 -32.5480 -32.5479 -31.8589 -31.8587
   -14.2574 -14.2415 -13.8463 -13.8206 -13.7494 -13.7270 -13.2029 -13.1974
   -10.5302 -10.4760 -10.1571 -10.0884  -9.9887  -9.9359  -9.6262  -9.5625
    -9.3410  -9.2846  -9.0366  -8.9887  -8.9151  -8.8384  -8.5089  -8.4752
     4.2904   4.4003   5.9593   6.0511   6.2360   6.3635   6.4110   6.4353
     6.8179   6.8812   7.2258   7.3644   7.6984   7.7727   8.4399   8.6622
     8.9046   9.0428  10.0101  10.1539  11.1885  11.2431  11.4402  11.4845
    12.3264  12.4236  12.4485  12.4852  12.7774  12.8335  13.3802  13.4678

          k = 0.2500-0.4330-0.6263 (  5266 PWs)   bands (ev):

   -33.0332 -33.0330 -32.6006 -32.6004 -32.5498 -32.5496 -31.8594 -31.8592
   -14.2514 -14.2309 -13.8200 -13.8129 -13.7663 -13.7547 -13.2104 -13.2088
   -10.5323 -10.4627 -10.1395 -10.1046  -9.9647  -9.9483  -9.6334  -9.5667
    -9.3474  -9.2715  -9.0365  -9.0010  -8.9123  -8.8558  -8.4936  -8.4685
     4.9367   5.0352   5.4281   5.4804   6.0901   6.1840   6.4442   6.4767
     6.7268   6.7519   7.3127   7.4286   7.8980   7.9635   8.3664   8.4843
     8.8761   8.9434   9.7278   9.8623  10.9374  11.0250  11.7015  11.7298
    12.3805  12.4230  12.6176  12.6638  12.7264  12.7829  13.0403  13.1454

          k =-0.5000-0.2887 0.0000 (  5254 PWs)   bands (ev):

   -33.0473 -33.0473 -32.6135 -32.6135 -32.5610 -32.5610 -31.8699 -31.8699
   -14.2129 -14.2129 -13.7923 -13.7923 -13.6863 -13.6863 -13.1748 -13.1748
   -10.4464 -10.4464 -10.0603 -10.0603  -9.9128  -9.9128  -9.6131  -9.6131
    -9.2022  -9.2022  -8.8854  -8.8854  -8.8424  -8.8424  -8.4158  -8.4158
     4.2382   4.2382   4.7337   4.7337   6.5183   6.5183   6.8345   6.8345
     7.1654   7.1654   7.4805   7.4805   7.8026   7.8026   8.2356   8.2356
     9.4479   9.4479   9.7941   9.7941  11.0670  11.0670  11.4921  11.4921
    12.2315  12.2315  12.3445  12.3445  12.7455  12.7455  12.9670  12.9670

          k =-0.5000-0.2887 0.3132 (  5256 PWs)   bands (ev):

   -33.0461 -33.0461 -32.6124 -32.6124 -32.5627 -32.5627 -31.8709 -31.8709
   -14.2034 -14.1906 -13.8016 -13.7665 -13.7169 -13.6867 -13.1913 -13.1782
   -10.4407 -10.4026 -10.1024 -10.0244  -9.9387  -9.8691  -9.6315  -9.5768
    -9.2318  -9.2225  -8.9646  -8.9188  -8.8223  -8.7977  -8.4368  -8.4031
     4.4900   4.5463   4.9785   5.0197   6.1204   6.2730   6.4895   6.5737
     6.9118   7.0724   7.5046   7.5235   7.8798   7.9375   8.3326   8.3733
     9.3349   9.4276   9.7715   9.8842  11.0818  11.1402  11.5731  11.6154
    11.9338  12.0378  12.3408  12.3893  12.6304  12.7018  12.7874  12.8330

          k =-0.5000-0.2887-0.6263 (  5256 PWs)   bands (ev):

   -33.0449 -33.0449 -32.6112 -32.6112 -32.5644 -32.5644 -31.8719 -31.8719
   -14.1800 -14.1800 -13.7835 -13.7835 -13.7104 -13.7104 -13.1950 -13.1950
   -10.3975 -10.3975 -10.0744 -10.0744  -9.8922  -9.8922  -9.5879  -9.5879
    -9.2512  -9.2512  -8.9833  -8.9833  -8.7960  -8.7960  -8.4230  -8.4230
     5.0955   5.0955   5.4440   5.4440   5.6742   5.6742   5.8060   5.8060
     7.0194   7.0194   7.6074   7.6074   8.0167   8.0167   8.3438   8.3438
     9.4727   9.4727   9.6849   9.6849  11.2920  11.2920  11.5864  11.5864
    11.9026  11.9026  12.1393  12.1393  12.4082  12.4082  12.7876  12.7876

          k =-0.5000 0.2887 0.0000 (  5253 PWs)   bands (ev):

   -33.0343 -33.0341 -32.6031 -32.6029 -32.5466 -32.5465 -31.8588 -31.8586
   -14.2541 -14.2436 -13.8463 -13.8376 -13.7262 -13.7203 -13.2025 -13.1983
   -10.4977 -10.4849 -10.1289 -10.1148  -9.9875  -9.9450  -9.6599  -9.6092
    -9.2734  -9.2417  -9.0211  -9.0077  -8.8943  -8.8750  -8.5412  -8.5173
     4.3876   4.5105   5.8957   5.9432   6.2388   6.2996   6.5926   6.6083
     6.9172   6.9582   7.2217   7.3420   7.6263   7.6882   8.2346   8.3671
     8.9438   9.0349   9.9407  10.0073  11.2706  11.3110  11.4548  11.5319
    12.1372  12.2315  12.3840  12.4292  12.7057  12.8235  13.1300  13.2394

          k =-0.5000 0.2887 0.3132 (  5250 PWs)   bands (ev):

   -33.0335 -33.0334 -32.6018 -32.6017 -32.5483 -32.5482 -31.8593 -31.8591
   -14.2483 -14.2313 -13.8456 -13.8165 -13.7545 -13.7285 -13.2124 -13.2052
   -10.4929 -10.4607 -10.1630 -10.0947 -10.0035  -9.9374  -9.6509  -9.5958
    -9.2875  -9.2402  -9.0404  -9.0016  -8.9220  -8.8586  -8.5293  -8.5029
     4.7116   4.7919   5.8835   5.9454   6.0546   6.1221   6.3620   6.4346
     6.8407   6.8698   7.3339   7.4954   7.8546   7.8941   8.3034   8.4287
     8.6331   8.7381   9.7627   9.8302  11.1819  11.2352  11.6014  11.6467
    12.1170  12.1812  12.2771  12.3547  12.7254  12.7842  13.5245  13.5623

          k =-0.5000 0.2887-0.6263 (  5272 PWs)   bands (ev):

   -33.0329 -33.0327 -32.6003 -32.6001 -32.5501 -32.5500 -31.8598 -31.8596
   -14.2524 -14.2337 -13.8162 -13.8118 -13.7650 -13.7531 -13.2127 -13.2107
   -10.5027 -10.4541 -10.1501 -10.1119  -9.9697  -9.9423  -9.6262  -9.5538
    -9.3106  -9.2630  -9.0579  -9.0427  -8.8973  -8.8627  -8.5290  -8.4851
     5.2157   5.2905   5.6121   5.6866   5.7746   5.8453   6.2402   6.2681
     6.9796   7.0424   7.3532   7.4648   7.8514   7.9225   8.1368   8.2795
     9.0164   9.0948   9.6702   9.7868  11.0314  11.1343  11.5002  11.5741
    12.0587  12.1620  12.4389  12.5016  12.6239  12.6626  12.8190  12.9010

          k =-0.5000-1.4434 0.0000 (  5252 PWs)   bands (ev):

   -33.0203 -33.0203 -32.5928 -32.5928 -32.5324 -32.5324 -31.8478 -31.8478
   -14.2769 -14.2769 -13.8822 -13.8822 -13.7749 -13.7749 -13.2277 -13.2277
   -10.5265 -10.5265 -10.1799 -10.1799 -10.0330 -10.0330  -9.6504  -9.6504
    -9.3116  -9.3116  -9.0815  -9.0815  -8.9423  -8.9423  -8.6969  -8.6969
     5.6251   5.6251   5.9830   5.9830   6.1901   6.1901   6.5142   6.5142
     6.5838   6.5838   7.2473   7.2473   7.6108   7.6108   8.0258   8.0258
     8.8468   8.8468   9.9552   9.9552  11.4753  11.4753  11.5998  11.5998
    12.1281  12.1281  12.3032  12.3032  12.9270  12.9270  13.5691  13.5691

          k =-0.5000-1.4434 0.3132 (  5244 PWs)   bands (ev):

   -33.0202 -33.0202 -32.5909 -32.5909 -32.5344 -32.5343 -31.8479 -31.8478
   -14.2848 -14.2799 -13.8888 -13.8701 -13.7923 -13.7745 -13.2307 -13.2269
   -10.5449 -10.5157 -10.2272 -10.1604 -10.0515  -9.9997  -9.6477  -9.5898
    -9.3501  -9.3078  -9.0827  -9.0639  -9.0044  -8.9168  -8.6816  -8.6320
     5.5518   5.6272   5.8788   5.9583   6.1979   6.2809   6.3330   6.3615
     6.6060   6.6694   7.2486   7.3708   7.8521   8.0380   8.0961   8.2364
     8.6312   8.7119   9.5834   9.7478  11.2661  11.2993  11.3814  11.4177
    12.0899  12.1582  12.2180  12.2828  12.8707  12.9865  13.5941  13.6611

          k =-0.5000-1.4434-0.6263 (  5288 PWs)   bands (ev):

   -33.0201 -33.0201 -32.5888 -32.5888 -32.5364 -32.5364 -31.8479 -31.8479
   -14.2878 -14.2878 -13.8779 -13.8779 -13.7906 -13.7906 -13.2299 -13.2299
   -10.5354 -10.5354 -10.2114 -10.2114 -10.0137 -10.0137  -9.5891  -9.5891
    -9.3428  -9.3428  -9.0762  -9.0762  -8.9679  -8.9679  -8.6177  -8.6177
     5.5676   5.5676   5.8800   5.8800   6.0736   6.0736   6.3383   6.3383
     6.7582   6.7582   7.5803   7.5803   7.9745   7.9745   8.1826   8.1826
     8.8217   8.8217   9.2293   9.2293  11.0005  11.0005  11.2206  11.2206
    12.4603  12.4603  12.6750  12.6750  12.7246  12.7246  12.8653  12.8653

          k = 0.0000-0.5773 0.3132 (  5250 PWs)   bands (ev):

   -33.0336 -33.0335 -32.6018 -32.6017 -32.5484 -32.5482 -31.8591 -31.8589
   -14.2503 -14.2391 -13.8416 -13.8179 -13.7560 -13.7371 -13.2050 -13.1989
   -10.5172 -10.4738 -10.1767 -10.1066  -9.9925  -9.9280  -9.6271  -9.5917
    -9.3304  -9.2980  -9.0021  -8.9631  -8.8909  -8.8316  -8.5209  -8.4819
     4.3557   4.4420   5.7754   5.8510   5.9553   6.0583   6.3432   6.3639
     6.7820   6.9012   7.6424   7.6910   7.7649   7.8743   8.3699   8.5969
     8.8822   9.1410  10.1036  10.2782  11.3207  11.3651  11.5247  11.5643
    12.2963  12.3785  12.5400  12.6483  12.8932  12.9747  13.4258  13.4831

          k =-0.2500-0.1443 0.3132 (  5261 PWs)   bands (ev):

   -33.0468 -33.0468 -32.6126 -32.6126 -32.5621 -32.5621 -31.8703 -31.8703
   -14.2095 -14.1957 -13.8123 -13.7794 -13.7082 -13.6810 -13.1879 -13.1746
   -10.4604 -10.4157 -10.1119 -10.0354  -9.9646  -9.8696  -9.6175  -9.5546
    -9.2499  -9.2282  -8.9559  -8.8957  -8.8290  -8.7818  -8.3767  -8.3536
     3.8574   3.9426   5.5733   5.6792   5.7850   5.8702   6.2379   6.2942
     7.0989   7.1417   7.5131   7.6433   8.1054   8.1942   8.4455   8.5599
     9.0936   9.2395  10.0426  10.1149  11.1212  11.1522  11.3979  11.4416
    12.0185  12.0795  12.4160  12.4859  12.7366  12.7513  13.1973  13.2457

          k =-0.2500-0.7217 0.3132 (  5250 PWs)   bands (ev):

   -33.0333 -33.0332 -32.6016 -32.6014 -32.5487 -32.5485 -31.8594 -31.8592
   -14.2521 -14.2422 -13.8375 -13.8111 -13.7585 -13.7343 -13.2084 -13.2016
   -10.4984 -10.4697 -10.1766 -10.0959  -9.9905  -9.9247  -9.6354  -9.5999
    -9.2965  -9.2760  -9.0167  -8.9807  -8.8873  -8.8436  -8.5606  -8.5045
     4.8643   4.9418   5.2475   5.4112   6.1112   6.1490   6.3377   6.3743
     6.7946   6.8758   7.5386   7.6371   7.7514   7.8812   8.2037   8.3999
     9.1741   9.3500   9.8862  10.0583  11.3016  11.3416  11.6082  11.6861
    12.0675  12.1451  12.3260  12.3836  12.6191  12.7103  13.0244  13.0905

          k =-0.2500 1.0104 0.3132 (  5260 PWs)   bands (ev):

   -33.0202 -33.0202 -32.5908 -32.5908 -32.5344 -32.5344 -31.8478 -31.8478
   -14.2874 -14.2835 -13.8907 -13.8690 -13.7961 -13.7762 -13.2324 -13.2290
   -10.5491 -10.5160 -10.2415 -10.1499 -10.0749 -10.0052  -9.6618  -9.6130
    -9.3459  -9.3116  -9.0673  -9.0267  -8.9641  -8.8952  -8.6661  -8.6115
     5.3121   5.3694   5.7099   5.7354   5.8538   5.9131   6.3527   6.3870
     6.7834   6.8469   7.2447   7.3509   7.7107   7.7905   8.3257   8.4606
     9.0807   9.2004   9.7495   9.8733  11.0454  11.1678  11.5348  11.6191
    12.0134  12.1042  12.4113  12.4211  12.9363  12.9716  14.1752  14.2291

          k =-0.2500 0.4330 0.3132 (  5259 PWs)   bands (ev):

   -33.0338 -33.0337 -32.6021 -32.6020 -32.5479 -32.5478 -31.8590 -31.8588
   -14.2479 -14.2296 -13.8453 -13.8130 -13.7612 -13.7324 -13.2100 -13.2036
   -10.5105 -10.4702 -10.1779 -10.0763 -10.0063  -9.9321  -9.6491  -9.6006
    -9.3253  -9.2698  -9.0409  -8.9968  -8.8902  -8.8232  -8.5041  -8.4848
     4.4685   4.4987   5.9022   5.9607   6.0055   6.1256   6.5086   6.5950
     6.7005   6.7613   7.3993   7.6080   8.0727   8.1097   8.2088   8.3576
     8.7849   8.9351   9.6584   9.7402  10.9689  11.0306  11.8429  11.8931
    12.2451  12.3074  12.4144  12.5009  13.0386  13.0960  13.6740  13.7647

          k = 0.5000-0.2887 0.3132 (  5250 PWs)   bands (ev):

   -33.0337 -33.0335 -32.6016 -32.6015 -32.5483 -32.5482 -31.8593 -31.8591
   -14.2591 -14.2445 -13.8426 -13.8140 -13.7512 -13.7242 -13.2064 -13.2000
   -10.5128 -10.4709 -10.1579 -10.0737  -9.9898  -9.9329  -9.6348  -9.5682
    -9.3046  -9.2624  -9.0472  -9.0053  -8.9236  -8.8553  -8.5431  -8.4950
     4.6109   4.7523   5.7597   5.8372   6.2634   6.3158   6.3943   6.4181
     6.9169   6.9578   7.2366   7.2520   7.7002   7.7877   8.1505   8.2754
     9.1782   9.3471   9.8613   9.9601  11.1742  11.2289  11.4512  11.4991
    12.0722  12.1259  12.2315  12.2931  12.6689  12.7680  13.0201  13.0958

     the Fermi energy is    11.3548 ev

!    total energy              =   -2248.53006537 Ry
     Harris-Foulkes estimate   =   -2248.53006550 Ry
     estimated scf accuracy    <       0.00000026 Ry

     total all-electron energy =    -90252.873434 Ry

     The total energy is the sum of the following terms:

     one-electron contribution =     -34.98365568 Ry
     hartree contribution      =      44.02813625 Ry
     xc contribution           =    -260.49820148 Ry
     ewald contribution        =    -248.94208901 Ry
     one-center paw contrib.   =   -1748.13171029 Ry
     smearing contrib. (-TS)   =      -0.00254515 Ry

     convergence has been achieved in  10 iterations

     Writing output data file 2329.save
 
     init_run     :      3.68s CPU      5.32s WALL (       1 calls)
     electrons    :     72.24s CPU     86.62s WALL (       1 calls)

     Called by init_run:
     wfcinit      :      3.20s CPU      4.33s WALL (       1 calls)
     potinit      :      0.26s CPU      0.36s WALL (       1 calls)

     Called by electrons:
     c_bands      :     59.60s CPU     70.77s WALL (      10 calls)
     sum_band     :      9.19s CPU     10.99s WALL (      10 calls)
     v_of_rho     :      0.05s CPU      0.06s WALL (      11 calls)
     newd         :      0.93s CPU      1.15s WALL (      11 calls)
     PAW_pot      :      2.21s CPU      2.62s WALL (      11 calls)
     mix_rho      :      0.13s CPU      0.17s WALL (      10 calls)

     Called by c_bands:
     init_us_2    :      0.18s CPU      0.21s WALL (     756 calls)
     cegterg      :     57.26s CPU     68.13s WALL (     360 calls)

     Called by sum_band:
     sum_band:bec :      1.68s CPU      1.76s WALL (     360 calls)
     addusdens    :      0.23s CPU      0.26s WALL (      10 calls)

     Called by *egterg:
     h_psi        :     30.63s CPU     37.59s WALL (    1567 calls)
     s_psi        :      2.36s CPU      2.48s WALL (    1567 calls)
     g_psi        :      0.07s CPU      0.07s WALL (    1171 calls)
     cdiaghg      :     16.89s CPU     19.67s WALL (    1531 calls)

     Called by h_psi:
     h_psi:pot    :     30.40s CPU     37.33s WALL (    1567 calls)
     h_psi:calbec :      1.99s CPU      2.28s WALL (    1567 calls)
     vloc_psi     :     25.89s CPU     32.50s WALL (    1567 calls)
     add_vuspsi   :      2.51s CPU      2.55s WALL (    1567 calls)

     General routines
     calbec       :      2.88s CPU      3.40s WALL (    1927 calls)
     fft          :      0.14s CPU      0.36s WALL (     205 calls)
     fftw         :     30.04s CPU     37.95s WALL (  298828 calls)
     davcio       :      0.00s CPU      0.01s WALL (      36 calls)
 
     Parallel routines
     fft_scatter  :     24.28s CPU     31.93s WALL (  299033 calls)
 
     PWSCF        :  1m16.96s CPU     2m46.26s WALL

 
   This run was terminated on:  10:59:43  16Nov2022            

=------------------------------------------------------------------------------=
   JOB DONE.
=------------------------------------------------------------------------------=
Removing 2329 from /home/shaharpit/tmp
