
     Program PWSCF v.6.1 (svn rev. 13369) starts on 16Nov2022 at 10:56:21 

     This program is part of the open-source Quantum ESPRESSO suite
     for quantum simulation of materials; please cite
         "P. Giannozzi et al., J. Phys.:Condens. Matter 21 395502 (2009);
          URL http://www.quantum-espresso.org", 
     in publications or presentations arising from this work. More details at
     http://www.quantum-espresso.org/quote

     Parallel version (MPI), running on    32 processors
     R & G space division:  proc/nbgrp/npool/nimage =      32
     Reading input from ./hcp_100_1.in
Warning: card &IONS ignored
Warning: card 	ION_DYNAMICS='BFGS', ignored
Warning: card / ignored
Warning: card &CELL ignored
Warning: card / ignored

     Current dimensions of program PWSCF are:
     Max number of different atomic species (ntypx) = 10
     Max number of k-points (npk) =  40000
     Max angular momentum in pseudopotentials (lmaxx) =  3
               file Gd.rel-pbe-spdn-kjpaw_psl.1.0.0.UPF: wavefunction(s)  5P 5P renormalized
               file H.pbe-kjpaw_psl.0.1.UPF: wavefunction(s)  1S renormalized

     Subspace diagonalization in iterative solution of the eigenvalue problem:
     a serial algorithm will be used

 
     Parallelization info
     --------------------
     sticks:   dense  smooth     PW     G-vecs:    dense   smooth      PW
     Min          40      40     12                 1314     1314     220
     Max          41      41     13                 1319     1319     225
     Sum        1287    1287    397                42147    42147    7103
 


     bravais-lattice index     =            0
     lattice parameter (alat)  =      13.6588  a.u.
     unit-cell volume          =     880.8636 (a.u.)^3
     number of atoms/cell      =           12
     number of atomic types    =            2
     number of electrons       =        52.00
     number of Kohn-Sham states=           62
     kinetic-energy cutoff     =      50.0000  Ry
     charge density cutoff     =     200.0000  Ry
     convergence threshold     =      1.0E-06
     mixing beta               =       0.7000
     number of iterations used =            8  plain     mixing
     Exchange-correlation      =  SLA  PW   PBX  PBC ( 1  4  3  4 0 0)
     Non magnetic calculation with spin-orbit


     celldm(1)=  13.658752  celldm(2)=   0.000000  celldm(3)=   0.000000
     celldm(4)=   0.000000  celldm(5)=   0.000000  celldm(6)=   0.000000

     crystal axes: (cart. coord. in units of alat)
               a(1) = (   1.000000   0.000000   0.000000 )  
               a(2) = (  -0.250003   0.433017   0.000000 )  
               a(3) = (   0.000000   0.000000   0.798309 )  

     reciprocal axes: (cart. coord. in units 2 pi/alat)
               b(1) = (  1.000000  0.577353  0.000000 )  
               b(2) = (  0.000000  2.309381  0.000000 )  
               b(3) = (  0.000000  0.000000  1.252647 )  


     PseudoPot. # 1 for Gd read from file:
     /home/shaharpit/MeamGdH/dft/qe_potentials/Gd.rel-pbe-spdn-kjpaw_psl.1.0.0.UPF
     MD5 check sum: cf50ec46d1536b4a0251694df1946a53
     Pseudo is Projector augmented-wave + core cor, Zval = 11.0
     Generated using "atomic" code by A. Dal Corso  v.6.2.2
     Shape of augmentation charge: PSQ
     Using radial grid of 1263 points, 10 beta functions with: 
                l(1) =   0
                l(2) =   0
                l(3) =   1
                l(4) =   1
                l(5) =   1
                l(6) =   1
                l(7) =   2
                l(8) =   2
                l(9) =   2
               l(10) =   2
     Q(r) pseudized with 0 coefficients 


     PseudoPot. # 2 for  H read from file:
     /home/shaharpit/MeamGdH/dft/qe_potentials/H.pbe-kjpaw_psl.0.1.UPF
     MD5 check sum: fbb168fef676c0aaadbafd73f5b1efa8
     Pseudo is Projector augmented-wave, Zval =  1.0
     Generated using "atomic" code by A. Dal Corso  v.5.0.2 svn rev. 9415
     Shape of augmentation charge: PSQ
     Using radial grid of  929 points,  2 beta functions with: 
                l(1) =   0
                l(2) =   0
     Q(r) pseudized with 0 coefficients 


     atomic species   valence    mass     pseudopotential
        Gd            11.00   157.25000     Gd( 1.00)
        H              1.00     1.00794      H( 1.00)

     No symmetry found



   Cartesian axes

     site n.     atom                  positions (alat units)
         1           Gd  tau(   1) = (   0.2499738   0.1443244   0.5987320  )
         2           Gd  tau(   2) = (   0.7499738   0.1443244   0.5987320  )
         3           Gd  tau(   3) = (   0.0000227   0.2886921   0.1995773  )
         4           Gd  tau(   4) = (   0.5000227   0.2886921   0.1995773  )
         5           H   tau(   5) = (   0.2603489   0.1351878   0.7734021  )
         6           H   tau(   6) = (   0.7141741   0.1153989   0.7679736  )
         7           H   tau(   7) = (   0.7240968   0.3952575   0.4070579  )
         8           H   tau(   8) = (   0.2676216   0.4208487   0.3987555  )
         9           H   tau(   9) = (  -0.0020534   0.4258284   0.2957736  )
        10           H   tau(  10) = (   0.7594248   0.0214343   0.2383752  )
        11           H   tau(  11) = (  -0.0314513   0.1687898   0.6524582  )
        12           H   tau(  12) = (   0.5425737   0.1587005   0.6760083  )

     number of k points=    36  gaussian smearing, width (Ry)=  0.0100
                       cart. coord. in units 2pi/alat
        k(    1) = (   0.0000000   0.0000000   0.0000000), wk =   0.0156250
        k(    2) = (   0.0000000   0.0000000   0.3131618), wk =   0.0312500
        k(    3) = (   0.0000000   0.0000000  -0.6263236), wk =   0.0156250
        k(    4) = (   0.0000000   0.5773452   0.0000000), wk =   0.0312500
        k(    5) = (   0.0000000   0.5773452   0.3131618), wk =   0.0312500
        k(    6) = (   0.0000000   0.5773452  -0.6263236), wk =   0.0312500
        k(    7) = (   0.0000000  -1.1546904   0.0000000), wk =   0.0156250
        k(    8) = (   0.0000000  -1.1546904   0.3131618), wk =   0.0312500
        k(    9) = (   0.0000000  -1.1546904  -0.6263236), wk =   0.0156250
        k(   10) = (   0.2500000   0.1443383   0.0000000), wk =   0.0312500
        k(   11) = (   0.2500000   0.1443383   0.3131618), wk =   0.0312500
        k(   12) = (   0.2500000   0.1443383  -0.6263236), wk =   0.0312500
        k(   13) = (   0.2500000   0.7216835   0.0000000), wk =   0.0312500
        k(   14) = (   0.2500000   0.7216835   0.3131618), wk =   0.0312500
        k(   15) = (   0.2500000   0.7216835  -0.6263236), wk =   0.0312500
        k(   16) = (   0.2500000  -1.0103521   0.0000000), wk =   0.0312500
        k(   17) = (   0.2500000  -1.0103521   0.3131618), wk =   0.0312500
        k(   18) = (   0.2500000  -1.0103521  -0.6263236), wk =   0.0312500
        k(   19) = (   0.2500000  -0.4330069   0.0000000), wk =   0.0312500
        k(   20) = (   0.2500000  -0.4330069   0.3131618), wk =   0.0312500
        k(   21) = (   0.2500000  -0.4330069  -0.6263236), wk =   0.0312500
        k(   22) = (  -0.5000000  -0.2886766   0.0000000), wk =   0.0156250
        k(   23) = (  -0.5000000  -0.2886766   0.3131618), wk =   0.0312500
        k(   24) = (  -0.5000000  -0.2886766  -0.6263236), wk =   0.0156250
        k(   25) = (  -0.5000000   0.2886686   0.0000000), wk =   0.0312500
        k(   26) = (  -0.5000000   0.2886686   0.3131618), wk =   0.0312500
        k(   27) = (  -0.5000000   0.2886686  -0.6263236), wk =   0.0312500
        k(   28) = (  -0.5000000  -1.4433670   0.0000000), wk =   0.0156250
        k(   29) = (  -0.5000000  -1.4433670   0.3131618), wk =   0.0312500
        k(   30) = (  -0.5000000  -1.4433670  -0.6263236), wk =   0.0156250
        k(   31) = (   0.0000000  -0.5773452   0.3131618), wk =   0.0312500
        k(   32) = (  -0.2500000  -0.1443383   0.3131618), wk =   0.0312500
        k(   33) = (  -0.2500000  -0.7216835   0.3131618), wk =   0.0312500
        k(   34) = (  -0.2500000   1.0103521   0.3131618), wk =   0.0312500
        k(   35) = (  -0.2500000   0.4330069   0.3131618), wk =   0.0312500
        k(   36) = (   0.5000000  -0.2886686   0.3131618), wk =   0.0312500

     Dense  grid:    42147 G-vectors     FFT dimensions: (  64,  32,  50)

     Estimated max dynamical RAM per process >      19.01MB

     Estimated total allocated dynamical RAM >     608.42MB

     Initial potential from superposition of free atoms

     starting charge   51.92374, renormalised to   52.00000
     Starting wfc are  120 randomized atomic wfcs
     Checking if some PAW data can be deallocated... 

     total cpu time spent up to now is        7.5 secs

     per-process dynamical memory:    64.9 Mb

     Self-consistent Calculation

     iteration #  1     ecut=    50.00 Ry     beta=0.70
     Davidson diagonalization with overlap
     ethr =  1.00E-02,  avg # of iterations =  2.0

     total cpu time spent up to now is       12.7 secs

     total energy              =   -2245.87557541 Ry
     Harris-Foulkes estimate   =   -2246.55184671 Ry
     estimated scf accuracy    <       1.12070354 Ry

     iteration #  2     ecut=    50.00 Ry     beta=0.70
     Davidson diagonalization with overlap
     ethr =  2.16E-03,  avg # of iterations =  3.8

     total cpu time spent up to now is       17.9 secs

     total energy              =   -2245.65762181 Ry
     Harris-Foulkes estimate   =   -2246.47620047 Ry
     estimated scf accuracy    <       1.73875498 Ry

     iteration #  3     ecut=    50.00 Ry     beta=0.70
     Davidson diagonalization with overlap
     ethr =  2.16E-03,  avg # of iterations =  3.9

     total cpu time spent up to now is       23.0 secs

     total energy              =   -2246.09154638 Ry
     Harris-Foulkes estimate   =   -2246.31343699 Ry
     estimated scf accuracy    <       0.70820334 Ry

     iteration #  4     ecut=    50.00 Ry     beta=0.70
     Davidson diagonalization with overlap
     ethr =  1.36E-03,  avg # of iterations =  2.6

     total cpu time spent up to now is       26.9 secs

     total energy              =   -2246.17445416 Ry
     Harris-Foulkes estimate   =   -2246.18472365 Ry
     estimated scf accuracy    <       0.02661933 Ry

     iteration #  5     ecut=    50.00 Ry     beta=0.70
     Davidson diagonalization with overlap
     ethr =  5.12E-05,  avg # of iterations =  5.2

     total cpu time spent up to now is       32.8 secs

     total energy              =   -2246.18054162 Ry
     Harris-Foulkes estimate   =   -2246.18341996 Ry
     estimated scf accuracy    <       0.00750764 Ry

     iteration #  6     ecut=    50.00 Ry     beta=0.70
     Davidson diagonalization with overlap
     ethr =  1.44E-05,  avg # of iterations =  4.2

     total cpu time spent up to now is       37.9 secs

     total energy              =   -2246.18173897 Ry
     Harris-Foulkes estimate   =   -2246.18256976 Ry
     estimated scf accuracy    <       0.00241844 Ry

     iteration #  7     ecut=    50.00 Ry     beta=0.70
     Davidson diagonalization with overlap
     ethr =  4.65E-06,  avg # of iterations =  3.2

     total cpu time spent up to now is       42.3 secs

     total energy              =   -2246.18210359 Ry
     Harris-Foulkes estimate   =   -2246.18230698 Ry
     estimated scf accuracy    <       0.00052646 Ry

     iteration #  8     ecut=    50.00 Ry     beta=0.70
     Davidson diagonalization with overlap
     ethr =  1.01E-06,  avg # of iterations =  3.1

     total cpu time spent up to now is       46.6 secs

     total energy              =   -2246.18219285 Ry
     Harris-Foulkes estimate   =   -2246.18224872 Ry
     estimated scf accuracy    <       0.00013447 Ry

     iteration #  9     ecut=    50.00 Ry     beta=0.70
     Davidson diagonalization with overlap
     ethr =  2.59E-07,  avg # of iterations =  2.9

     total cpu time spent up to now is       50.8 secs

     total energy              =   -2246.18221852 Ry
     Harris-Foulkes estimate   =   -2246.18223010 Ry
     estimated scf accuracy    <       0.00003044 Ry

     iteration # 10     ecut=    50.00 Ry     beta=0.70
     Davidson diagonalization with overlap
     ethr =  5.85E-08,  avg # of iterations =  2.2

     total cpu time spent up to now is       54.7 secs

     End of self-consistent calculation

          k = 0.0000 0.0000 0.0000 (  5289 PWs)   bands (ev):

   -33.3399 -33.3399 -33.2140 -33.2140 -32.6257 -32.6257 -32.0194 -32.0194
   -14.4875 -14.4875 -14.3059 -14.3059 -13.7844 -13.7844 -13.3400 -13.3400
   -10.7288 -10.7288 -10.4968 -10.4968 -10.0732 -10.0732  -9.7803  -9.7803
    -9.5635  -9.5635  -9.2263  -9.2263  -8.8983  -8.8983  -8.4089  -8.4089
     3.5098   3.5098   5.6183   5.6183   6.0826   6.0826   6.3499   6.3499
     7.9035   7.9035   8.1262   8.1262   8.7752   8.7752   9.2213   9.2213
     9.7943   9.7943  11.1012  11.1012  11.7207  11.7207  11.8731  11.8731
    12.2834  12.2834  12.4334  12.4334  13.0661  13.0661

          k = 0.0000 0.0000 0.3132 (  5279 PWs)   bands (ev):

   -33.3389 -33.3389 -33.2136 -33.2136 -32.6267 -32.6267 -32.0199 -32.0199
   -14.4896 -14.4788 -14.2914 -14.2896 -13.8005 -13.7919 -13.3516 -13.3430
   -10.7462 -10.7168 -10.4795 -10.4701 -10.0790 -10.0480  -9.7769  -9.7498
    -9.5897  -9.5424  -9.2909  -9.2721  -8.9177  -8.8837  -8.4134  -8.4106
     3.8760   3.9166   5.5114   5.5640   5.7670   5.8056   6.7066   6.8405
     7.5056   7.5685   7.9464   8.0555   8.6094   8.6604   9.1567   9.2907
     9.9126   9.9720  10.8310  10.8657  11.7088  11.7404  11.9352  11.9574
    12.0887  12.1243  12.2211  12.3098  13.0825  13.1198

          k = 0.0000 0.0000-0.6263 (  5252 PWs)   bands (ev):

   -33.3380 -33.3380 -33.2132 -33.2132 -32.6278 -32.6278 -32.0205 -32.0205
   -14.4815 -14.4815 -14.2735 -14.2735 -13.8088 -13.8088 -13.3547 -13.3547
   -10.7360 -10.7360 -10.4484 -10.4484 -10.0559 -10.0559  -9.7423  -9.7423
    -9.5658  -9.5658  -9.3474  -9.3474  -8.8995  -8.8995  -8.4149  -8.4149
     4.5280   4.5280   5.2384   5.2384   5.7081   5.7081   6.6646   6.6646
     7.4793   7.4793   8.0422   8.0422   8.2500   8.2500   9.2364   9.2364
    10.1732  10.1732  10.6727  10.6727  11.6450  11.6450  11.9232  11.9232
    12.1489  12.1489  12.3367  12.3367  12.8439  12.8439

          k = 0.0000 0.5773 0.0000 (  5253 PWs)   bands (ev):

   -33.3232 -33.3230 -33.2044 -33.2043 -32.6148 -32.6146 -32.0090 -32.0088
   -14.5061 -14.4921 -14.3871 -14.3683 -13.8112 -13.8025 -13.3716 -13.3622
   -10.7572 -10.7255 -10.6166 -10.5816 -10.1066 -10.0563  -9.8305  -9.8106
    -9.6155  -9.5961  -9.3291  -9.3106  -8.9727  -8.9520  -8.6321  -8.6201
     4.4759   4.5559   5.8432   5.9149   6.0020   6.0876   6.7142   6.7765
     7.3564   7.5356   7.8314   8.0208   8.4185   8.5043   8.9253   9.1161
    10.4530  10.5317  11.1742  11.2625  11.3187  11.3422  11.5192  11.5685
    12.2559  12.3536  12.5436  12.6366  12.7809  12.8976

          k = 0.0000 0.5773 0.3132 (  5250 PWs)   bands (ev):

   -33.3226 -33.3225 -33.2041 -33.2039 -32.6155 -32.6153 -32.0094 -32.0092
   -14.5034 -14.4831 -14.3831 -14.3644 -13.8238 -13.8105 -13.3775 -13.3686
   -10.7659 -10.7156 -10.6215 -10.5590 -10.0916 -10.0654  -9.8223  -9.8091
    -9.6302  -9.5914  -9.3640  -9.3164  -8.9686  -8.9332  -8.6252  -8.6167
     4.8324   4.8950   5.7773   5.8401   5.9284   6.0230   6.7929   6.8725
     7.3105   7.4080   7.8332   7.9305   8.0548   8.1168   8.9394   8.9618
    10.4600  10.5707  10.7696  10.8030  11.2798  11.3357  11.8370  11.8698
    12.2189  12.3128  12.5655  12.5846  13.2227  13.2810

          k = 0.0000 0.5773-0.6263 (  5272 PWs)   bands (ev):

   -33.3222 -33.3221 -33.2037 -33.2036 -32.6160 -32.6158 -32.0097 -32.0095
   -14.5048 -14.4840 -14.3841 -14.3644 -13.8248 -13.8150 -13.3787 -13.3710
   -10.7832 -10.7095 -10.6132 -10.5638 -10.0700 -10.0494  -9.7914  -9.7636
    -9.6366  -9.5880  -9.4107  -9.3799  -8.9701  -8.9235  -8.6154  -8.6054
     4.8421   4.9211   5.8639   5.9517   6.0560   6.0652   6.8504   6.8853
     7.2956   7.3945   7.8050   7.8808   7.9806   8.0196   8.7994   8.9468
    10.4600  10.5565  10.7899  10.8595  11.1964  11.2328  11.5080  11.5455
    12.4049  12.4987  12.7182  12.7396  13.0131  13.0335

          k = 0.0000-1.1547 0.0000 (  5284 PWs)   bands (ev):

   -33.3092 -33.3092 -33.1915 -33.1915 -32.6041 -32.6041 -31.9980 -31.9980
   -14.5529 -14.5529 -14.4275 -14.4275 -13.8324 -13.8324 -13.3930 -13.3930
   -10.7986 -10.7986 -10.6593 -10.6593 -10.1390 -10.1390  -9.8332  -9.8332
    -9.6103  -9.6103  -9.4169  -9.4169  -9.0024  -9.0024  -8.7672  -8.7672
     5.1341   5.1341   5.9857   5.9857   6.2536   6.2536   6.4476   6.4476
     6.9826   6.9826   7.7556   7.7556   8.2554   8.2554   8.9748   8.9748
    10.0963  10.0963  11.2670  11.2670  11.6652  11.6652  11.9163  11.9163
    12.0563  12.0563  12.3021  12.3021  14.0204  14.0204

          k = 0.0000-1.1547 0.3132 (  5252 PWs)   bands (ev):

   -33.3091 -33.3091 -33.1914 -33.1914 -32.6042 -32.6042 -31.9981 -31.9981
   -14.5599 -14.5574 -14.4327 -14.4264 -13.8382 -13.8317 -13.3978 -13.3933
   -10.8057 -10.7898 -10.6882 -10.6526 -10.1444 -10.1140  -9.8327  -9.7983
    -9.6262  -9.5997  -9.4542  -9.3918  -9.0042  -8.9767  -8.7645  -8.7408
     5.0136   5.0157   5.7881   5.8468   6.1720   6.2522   6.6413   6.7661
     7.1093   7.1956   7.5668   7.6885   8.2276   8.3068   9.0362   9.1248
    10.0292  10.1110  11.0009  11.0219  11.7170  11.7916  11.9923  12.1211
    12.1758  12.2212  12.4136  12.4507  13.9739  14.0722

          k = 0.0000-1.1547-0.6263 (  5272 PWs)   bands (ev):

   -33.3090 -33.3090 -33.1912 -33.1912 -32.6044 -32.6044 -31.9981 -31.9981
   -14.5643 -14.5643 -14.4317 -14.4317 -13.8373 -13.8373 -13.3982 -13.3982
   -10.7966 -10.7966 -10.6827 -10.6827 -10.1186 -10.1186  -9.7994  -9.7994
    -9.6158  -9.6158  -9.4279  -9.4279  -8.9776  -8.9776  -8.7384  -8.7384
     4.9051   4.9051   5.7421   5.7421   6.4013   6.4013   6.7250   6.7250
     6.8515   6.8515   7.8146   7.8146   8.4371   8.4371   9.0187   9.0187
    10.2245  10.2245  10.7040  10.7040  11.8203  11.8203  12.2966  12.2966
    12.4199  12.4199  12.9475  12.9475  13.5466  13.5466

          k = 0.2500 0.1443 0.0000 (  5279 PWs)   bands (ev):

   -33.3374 -33.3373 -33.2166 -33.2165 -32.6252 -32.6252 -32.0200 -32.0200
   -14.4778 -14.4729 -14.3160 -14.3114 -13.7786 -13.7776 -13.3450 -13.3434
   -10.7145 -10.6947 -10.5231 -10.4991 -10.0666 -10.0335  -9.8233  -9.7902
    -9.5334  -9.5169  -9.2801  -9.2560  -8.8864  -8.8738  -8.4783  -8.4626
     3.8152   3.8862   5.5391   5.6855   5.9050   5.9563   6.6495   6.7382
     7.7089   7.7705   7.8393   7.9284   8.7066   8.7486   9.0634   9.1014
    10.0788  10.1153  11.0985  11.1826  11.6772  11.7133  11.8479  11.8740
    12.1307  12.1632  12.4356  12.5144  12.7967  12.8633

          k = 0.2500 0.1443 0.3132 (  5261 PWs)   bands (ev):

   -33.3366 -33.3365 -33.2161 -33.2161 -32.6262 -32.6262 -32.0206 -32.0206
   -14.4730 -14.4670 -14.3043 -14.2981 -13.7940 -13.7856 -13.3556 -13.3464
   -10.7092 -10.6952 -10.5088 -10.4791 -10.0517 -10.0165  -9.7967  -9.7805
    -9.5695  -9.5287  -9.3333  -9.2992  -8.8876  -8.8586  -8.4835  -8.4655
     4.1876   4.2541   5.7026   5.7434   5.9320   6.0201   6.3158   6.3882
     7.5260   7.5588   7.8874   7.9740   8.5211   8.5997   9.0319   9.1401
    10.0556  10.0914  10.8513  10.9324  11.7038  11.7754  11.8684  11.9543
    11.9982  12.0648  12.2444  12.3050  12.8770  12.9069

          k = 0.2500 0.1443-0.6263 (  5254 PWs)   bands (ev):

   -33.3357 -33.3357 -33.2156 -33.2156 -32.6272 -32.6272 -32.0212 -32.0212
   -14.4656 -14.4602 -14.2934 -14.2874 -13.8029 -13.8012 -13.3582 -13.3562
   -10.7090 -10.6881 -10.4883 -10.4662 -10.0376 -10.0264  -9.7598  -9.7492
    -9.5598  -9.5379  -9.4017  -9.3753  -8.8799  -8.8666  -8.4816  -8.4653
     4.7938   4.8401   5.4031   5.4571   5.7148   5.7298   6.5963   6.7275
     7.3683   7.4550   7.8939   8.0348   8.0929   8.1735   9.0413   9.0746
    10.2754  10.2910  10.7485  10.7742  11.5762  11.6118  11.8057  11.9208
    12.0557  12.1181  12.2925  12.3485  12.5536  12.5839

          k = 0.2500 0.7217 0.0000 (  5270 PWs)   bands (ev):

   -33.3221 -33.3219 -33.2055 -33.2054 -32.6144 -32.6143 -32.0095 -32.0093
   -14.5110 -14.4969 -14.3853 -14.3631 -13.8058 -13.7977 -13.3747 -13.3656
   -10.7401 -10.7359 -10.5981 -10.5872 -10.0994 -10.0551  -9.8507  -9.8235
    -9.5598  -9.5254  -9.3921  -9.3551  -8.9439  -8.9336  -8.6830  -8.6532
     5.0218   5.0809   5.3419   5.4858   6.0914   6.1934   6.8633   6.9147
     7.2004   7.3488   7.7295   7.7839   8.2936   8.3755   8.9033   8.9231
    10.6734  10.7063  10.9599  11.0752  11.5199  11.5784  11.6539  11.6770
    12.0256  12.0770  12.3283  12.4331  12.6616  12.8100

          k = 0.2500 0.7217 0.3132 (  5250 PWs)   bands (ev):

   -33.3216 -33.3215 -33.2051 -33.2050 -32.6151 -32.6149 -32.0098 -32.0096
   -14.5059 -14.4885 -14.3842 -14.3591 -13.8188 -13.8058 -13.3803 -13.3712
   -10.7383 -10.7166 -10.6176 -10.5694 -10.0853 -10.0739  -9.8357  -9.8072
    -9.5778  -9.5398  -9.4117  -9.3655  -8.9373  -8.9170  -8.6654  -8.6567
     5.2376   5.2852   5.4842   5.5491   5.9845   6.0919   6.9145   7.0504
     7.2046   7.2876   7.6158   7.6990   8.0743   8.1643   8.6969   8.8013
    10.6384  10.6673  10.8944  10.9644  11.4948  11.5220  11.6634  11.7139
    12.1152  12.1455  12.2876  12.3174  13.1897  13.2529

          k = 0.2500 0.7217-0.6263 (  5252 PWs)   bands (ev):

   -33.3213 -33.3211 -33.2047 -33.2046 -32.6156 -32.6154 -32.0101 -32.0099
   -14.5086 -14.4915 -14.3832 -14.3575 -13.8199 -13.8105 -13.3814 -13.3742
   -10.7366 -10.7111 -10.6330 -10.5698 -10.0585 -10.0511  -9.7932  -9.7600
    -9.6043  -9.5625  -9.4471  -9.4234  -8.9328  -8.9028  -8.6639  -8.6410
     5.1510   5.2309   5.5625   5.6747   6.2626   6.3435   6.7151   6.8438
     7.1105   7.2091   7.6903   7.8118   8.1455   8.2729   8.6599   8.6932
    10.5056  10.5319  10.9943  11.0207  11.2668  11.2922  11.5217  11.5843
    12.1397  12.1922  12.6033  12.7001  12.9279  13.0037

          k = 0.2500-1.0104 0.0000 (  5254 PWs)   bands (ev):

   -33.3092 -33.3092 -33.1916 -33.1916 -32.6041 -32.6041 -31.9980 -31.9980
   -14.5493 -14.5408 -14.4366 -14.4279 -13.8306 -13.8297 -13.3919 -13.3909
   -10.7978 -10.7801 -10.6796 -10.6588 -10.1253 -10.1108  -9.8313  -9.8254
    -9.5988  -9.5870  -9.4493  -9.4296  -9.0397  -9.0239  -8.8003  -8.7845
     5.4010   5.4287   5.9939   6.0655   6.2002   6.2803   6.6032   6.7352
     6.9504   7.0382   7.6364   7.6982   8.2280   8.2847   8.7256   8.8527
    10.1990  10.2881  11.0692  11.1643  11.6111  11.6469  11.8327  11.9367
    12.0981  12.1606  12.3081  12.3575  13.4110  13.5021

          k = 0.2500-1.0104 0.3132 (  5260 PWs)   bands (ev):

   -33.3091 -33.3091 -33.1914 -33.1914 -32.6042 -32.6042 -31.9981 -31.9981
   -14.5571 -14.5450 -14.4394 -14.4280 -13.8351 -13.8304 -13.3966 -13.3912
   -10.8010 -10.7809 -10.6921 -10.6610 -10.1285 -10.0958  -9.8255  -9.7890
    -9.6132  -9.5731  -9.4723  -9.4361  -9.0317  -9.0017  -8.7862  -8.7654
     5.2062   5.2545   5.8113   5.8813   6.2880   6.3723   6.8881   7.0267
     7.1971   7.2830   7.4311   7.6269   8.2242   8.3216   8.7105   8.8137
    10.3026  10.3600  10.6862  10.7209  11.4053  11.4474  11.8833  11.9152
    12.1863  12.2662  12.5830  12.6079  13.4814  13.5365

          k = 0.2500-1.0104-0.6263 (  5260 PWs)   bands (ev):

   -33.3090 -33.3090 -33.1912 -33.1912 -32.6044 -32.6044 -31.9982 -31.9982
   -14.5612 -14.5490 -14.4439 -14.4306 -13.8357 -13.8342 -13.3975 -13.3961
   -10.8052 -10.7767 -10.7057 -10.6678 -10.1081 -10.0928  -9.8019  -9.7785
    -9.6208  -9.5852  -9.4731  -9.4456  -9.0094  -8.9970  -8.7618  -8.7562
     5.1647   5.2255   5.8584   5.8872   6.4430   6.4836   6.7400   6.7645
     6.9271   6.9899   7.8523   7.8880   8.2743   8.4033   8.7651   8.8427
    10.3083  10.3308  10.4594  10.4749  11.4170  11.4480  11.8526  11.8816
    12.2511  12.2741  12.8333  12.8902  13.2052  13.2520

          k = 0.2500-0.4330 0.0000 (  5251 PWs)   bands (ev):

   -33.3247 -33.3245 -33.2028 -33.2027 -32.6150 -32.6148 -32.0088 -32.0086
   -14.5232 -14.5028 -14.3729 -14.3589 -13.8106 -13.8008 -13.3687 -13.3608
   -10.7790 -10.7435 -10.5895 -10.5713 -10.0840 -10.0417  -9.8331  -9.8046
    -9.6004  -9.5955  -9.3401  -9.3144  -9.0258  -8.9921  -8.6138  -8.5988
     4.3551   4.4504   5.9405   5.9990   6.2468   6.2935   6.7121   6.8946
     7.3579   7.5113   7.7553   7.9251   8.5011   8.5560   8.8077   8.9487
    10.3224  10.3840  11.1987  11.2977  11.3826  11.4157  11.4885  11.5695
    12.3442  12.4032  12.6901  12.7513  12.9826  13.0125

          k = 0.2500-0.4330 0.3132 (  5259 PWs)   bands (ev):

   -33.3242 -33.3240 -33.2026 -33.2025 -32.6155 -32.6153 -32.0091 -32.0089
   -14.5292 -14.5029 -14.3706 -14.3563 -13.8126 -13.8049 -13.3699 -13.3643
   -10.8044 -10.7342 -10.5772 -10.5717 -10.0637 -10.0310  -9.7983  -9.7537
    -9.6194  -9.5922  -9.3982  -9.3687  -9.0161  -8.9820  -8.6084  -8.5892
     4.5109   4.6179   5.9894   6.0418   6.2836   6.3236   6.7759   6.8789
     7.0743   7.1260   7.9031   7.9838   8.5321   8.6666   8.9345   9.0395
    10.1061  10.1892  10.7543  10.8375  11.2904  11.3299  11.4894  11.5422
    12.4026  12.4555  12.4779  12.5326  12.8439  12.9545

          k = 0.2500-0.4330-0.6263 (  5266 PWs)   bands (ev):

   -33.3236 -33.3235 -33.2023 -33.2022 -32.6162 -32.6160 -32.0095 -32.0093
   -14.5302 -14.4990 -14.3606 -14.3469 -13.8250 -13.8144 -13.3769 -13.3706
   -10.8160 -10.7294 -10.5734 -10.5435 -10.0628 -10.0411  -9.7931  -9.7535
    -9.6150  -9.5689  -9.4274  -9.4053  -9.0148  -8.9619  -8.6001  -8.5865
     4.9955   5.0784   5.8266   5.9159   6.1568   6.1995   6.6683   6.7329
     7.2574   7.3440   7.7840   7.9126   8.0522   8.1740   8.8754   9.0061
    10.3177  10.3760  10.7232  10.7727  10.9425  11.0155  11.5821  11.6150
    12.3451  12.3984  12.6032  12.6495  12.9515  12.9790

          k =-0.5000-0.2887 0.0000 (  5254 PWs)   bands (ev):

   -33.3348 -33.3348 -33.2192 -33.2192 -32.6246 -32.6246 -32.0207 -32.0207
   -14.4617 -14.4617 -14.3230 -14.3230 -13.7718 -13.7718 -13.3485 -13.3485
   -10.6769 -10.6769 -10.5285 -10.5285 -10.0221 -10.0221  -9.8406  -9.8406
    -9.4551  -9.4551  -9.3404  -9.3404  -8.8517  -8.8517  -8.5407  -8.5407
     4.5012   4.5012   4.9454   4.9454   6.3840   6.3840   7.1327   7.1327
     7.3111   7.3111   7.4952   7.4952   8.6752   8.6752   9.0702   9.0702
    10.5319  10.5319  10.8538  10.8538  11.7007  11.7007  11.8684  11.8684
    12.2104  12.2104  12.4609  12.4610  12.7088  12.7089

          k =-0.5000-0.2887 0.3132 (  5256 PWs)   bands (ev):

   -33.3341 -33.3341 -33.2187 -33.2187 -32.6256 -32.6256 -32.0213 -32.0213
   -14.4551 -14.4467 -14.3189 -14.3161 -13.7875 -13.7791 -13.3591 -13.3491
   -10.6703 -10.6515 -10.5351 -10.5160 -10.0295  -9.9966  -9.8237  -9.7965
    -9.4966  -9.4724  -9.4107  -9.3695  -8.8505  -8.8372  -8.5497  -8.5327
     4.7488   4.7886   5.1400   5.1909   6.2633   6.3694   6.7533   6.8716
     7.3147   7.3858   7.6024   7.6471   8.2092   8.2851   9.0559   9.1245
    10.4200  10.4672  10.8601  10.9163  11.3877  11.4937  11.9582  12.0024
    12.1006  12.1675  12.3794  12.4427  12.6850  12.7352

          k =-0.5000-0.2887-0.6263 (  5256 PWs)   bands (ev):

   -33.3333 -33.3333 -33.2181 -33.2181 -32.6266 -32.6266 -32.0219 -32.0219
   -14.4397 -14.4397 -14.3119 -14.3119 -13.7952 -13.7952 -13.3598 -13.3598
   -10.6454 -10.6454 -10.5220 -10.5220 -10.0049 -10.0049  -9.7705  -9.7705
    -9.5114  -9.5114  -9.4493  -9.4493  -8.8371  -8.8371  -8.5418  -8.5418
     5.2430   5.2430   5.4286   5.4286   5.9456   5.9456   6.6350   6.6350
     7.3393   7.3393   7.5937   7.5937   8.0623   8.0623   8.9800   8.9800
    10.4701  10.4701  10.8174  10.8174  11.5943  11.5943  11.7438  11.7438
    11.9296  11.9296  12.2112  12.2112  12.6428  12.6429

          k =-0.5000 0.2887 0.0000 (  5253 PWs)   bands (ev):

   -33.3236 -33.3234 -33.2039 -33.2038 -32.6146 -32.6144 -32.0093 -32.0091
   -14.5262 -14.5084 -14.3705 -14.3552 -13.8050 -13.7962 -13.3717 -13.3643
   -10.7701 -10.7426 -10.5815 -10.5699 -10.0779 -10.0380  -9.8540  -9.8177
    -9.5385  -9.5197  -9.4000  -9.3695  -9.0117  -8.9808  -8.6470  -8.6314
     4.6394   4.7687   5.8439   5.9274   6.2983   6.4044   6.8473   7.0055
     7.1292   7.2489   7.5501   7.6399   8.3521   8.4546   8.7626   8.8273
    10.4406  10.5247  10.9915  11.0564  11.6462  11.6902  11.8206  11.8594
    12.1032  12.1843  12.4962  12.5351  12.6969  12.7790

          k =-0.5000 0.2887 0.3132 (  5250 PWs)   bands (ev):

   -33.3231 -33.3229 -33.2036 -33.2035 -32.6153 -32.6151 -32.0096 -32.0094
   -14.5259 -14.5038 -14.3636 -14.3462 -13.8181 -13.8053 -13.3787 -13.3693
   -10.7753 -10.7295 -10.5822 -10.5524 -10.0809 -10.0553  -9.8377  -9.8041
    -9.5419  -9.5061  -9.4278  -9.4057  -8.9987  -8.9692  -8.6395  -8.6247
     4.9030   5.0130   5.8497   5.9263   6.2469   6.3330   6.9802   7.0653
     7.1397   7.2405   7.4882   7.5506   8.0819   8.1765   8.5957   8.6440
    10.7802  10.8052  10.8956  10.9756  11.0757  11.1635  11.8332  11.8819
    12.2168  12.2772  12.3224  12.3674  12.8579  12.8935

          k =-0.5000 0.2887-0.6263 (  5272 PWs)   bands (ev):

   -33.3227 -33.3225 -33.2033 -33.2032 -32.6158 -32.6156 -32.0099 -32.0097
   -14.5324 -14.5065 -14.3581 -14.3434 -13.8201 -13.8100 -13.3794 -13.3738
   -10.7851 -10.7278 -10.5797 -10.5502 -10.0519 -10.0429  -9.7953  -9.7487
    -9.5584  -9.5313  -9.4840  -9.4651  -8.9871  -8.9472  -8.6404  -8.6150
     5.2913   5.3759   5.7023   5.7645   6.2123   6.3227   6.5829   6.6646
     7.2552   7.2900   7.6035   7.6873   8.1678   8.2573   8.7713   8.8026
    10.2851  10.2993  10.8541  10.9095  11.1957  11.2780  11.5719  11.6680
    11.9706  12.0622  12.5851  12.6343  12.8495  12.8581

          k =-0.5000-1.4434 0.0000 (  5252 PWs)   bands (ev):

   -33.3092 -33.3092 -33.1916 -33.1916 -32.6040 -32.6040 -31.9981 -31.9981
   -14.5368 -14.5368 -14.4375 -14.4375 -13.8279 -13.8279 -13.3898 -13.3898
   -10.7789 -10.7789 -10.6795 -10.6795 -10.0957 -10.0957  -9.8247  -9.8247
    -9.5663  -9.5663  -9.4699  -9.4699  -9.0629  -9.0629  -8.8175  -8.8175
     5.7585   5.7585   6.0443   6.0443   6.3319   6.3319   6.8237   6.8237
     7.1787   7.1787   7.3104   7.3104   8.2950   8.2950   8.5616   8.5616
    10.4911  10.4911  10.9051  10.9051  11.6373  11.6373  11.9453  11.9453
    12.1320  12.1320  12.3043  12.3043  13.1315  13.1315

          k =-0.5000-1.4434 0.3132 (  5244 PWs)   bands (ev):

   -33.3091 -33.3091 -33.1914 -33.1914 -32.6042 -32.6042 -31.9981 -31.9981
   -14.5430 -14.5393 -14.4419 -14.4386 -13.8328 -13.8277 -13.3946 -13.3905
   -10.7928 -10.7753 -10.6983 -10.6682 -10.1008 -10.0758  -9.8216  -9.7807
    -9.5906  -9.5630  -9.4983  -9.4718  -9.0602  -9.0278  -8.8110  -8.7878
     5.6590   5.7073   5.9768   6.0204   6.3947   6.4602   6.7786   6.8610
     6.9844   7.1007   7.5647   7.6672   8.1399   8.2618   8.6715   8.7762
    10.1894  10.2687  10.8997  10.9388  11.1545  11.2434  11.5146  11.5659
    12.1606  12.2206  12.2977  12.3977  13.3211  13.4058

          k =-0.5000-1.4434-0.6263 (  5288 PWs)   bands (ev):

   -33.3090 -33.3090 -33.1912 -33.1912 -32.6044 -32.6044 -31.9982 -31.9982
   -14.5455 -14.5455 -14.4430 -14.4430 -13.8326 -13.8326 -13.3953 -13.3953
   -10.7898 -10.7898 -10.6866 -10.6866 -10.0809 -10.0809  -9.7816  -9.7816
    -9.5822  -9.5822  -9.4986  -9.4986  -9.0299  -9.0299  -8.7793  -8.7793
     5.6358   5.6358   5.9258   5.9258   6.5098   6.5098   6.7430   6.7430
     7.1335   7.1335   7.8770   7.8770   8.1249   8.1249   8.7084   8.7084
    10.1054  10.1054  10.4810  10.4810  11.2172  11.2172  11.3969  11.3969
    12.5167  12.5167  12.6380  12.6380  12.8542  12.8542

          k = 0.0000-0.5773 0.3132 (  5250 PWs)   bands (ev):

   -33.3228 -33.3226 -33.2041 -33.2039 -32.6153 -32.6152 -32.0093 -32.0091
   -14.5079 -14.4926 -14.3881 -14.3683 -13.8126 -13.8068 -13.3730 -13.3642
   -10.7735 -10.7184 -10.6144 -10.5835 -10.0839 -10.0414  -9.7950  -9.7679
    -9.6273  -9.5948  -9.3836  -9.3611  -8.9740  -8.9423  -8.6240  -8.6058
     4.4957   4.5807   5.8541   5.9672   6.1499   6.2194   6.8292   6.8841
     7.1712   7.3014   7.8912   8.0566   8.4547   8.5132   8.9197   8.9490
    10.3187  10.4282  10.8438  10.9378  11.4425  11.4718  11.5465  11.5822
    12.2812  12.3607  12.5427  12.6292  12.8671  12.9541

          k =-0.2500-0.1443 0.3132 (  5261 PWs)   bands (ev):

   -33.3366 -33.3365 -33.2161 -33.2161 -32.6262 -32.6262 -32.0206 -32.0206
   -14.4751 -14.4605 -14.3064 -14.3018 -13.7942 -13.7854 -13.3551 -13.3455
   -10.7200 -10.6782 -10.5036 -10.4918 -10.0644 -10.0283  -9.7985  -9.7600
    -9.5440  -9.5115  -9.3401  -9.3205  -8.8948  -8.8678  -8.4782  -8.4604
     4.1563   4.2444   5.3934   5.4891   5.8591   5.9239   7.2031   7.2808
     7.2990   7.3529   7.7658   7.8531   8.2755   8.4169   9.0665   9.1041
    10.2122  10.2931  11.0074  11.0346  11.4548  11.4996  11.8952  11.9386
    12.0194  12.0746  12.3104  12.3629  12.8241  12.9031

          k =-0.2500-0.7217 0.3132 (  5250 PWs)   bands (ev):

   -33.3217 -33.3216 -33.2051 -33.2050 -32.6150 -32.6148 -32.0098 -32.0096
   -14.5138 -14.4998 -14.3845 -14.3613 -13.8069 -13.8026 -13.3762 -13.3680
   -10.7419 -10.7269 -10.6230 -10.5777 -10.0690 -10.0368  -9.8099  -9.7827
    -9.5798  -9.5488  -9.4361  -9.4052  -8.9410  -8.9156  -8.6746  -8.6427
     4.9487   5.0321   5.4436   5.6166   6.3193   6.4135   6.6722   6.7187
     7.1840   7.3088   7.7352   7.8308   8.4901   8.5485   8.7733   8.8492
    10.4080  10.4501  10.8734  10.9266  11.4707  11.5427  11.7977  11.8570
    12.0568  12.1078  12.3329  12.3745  12.6779  12.7372

          k =-0.2500 1.0104 0.3132 (  5260 PWs)   bands (ev):

   -33.3091 -33.3091 -33.1914 -33.1914 -32.6042 -32.6042 -31.9981 -31.9981
   -14.5535 -14.5448 -14.4418 -14.4296 -13.8358 -13.8290 -13.3958 -13.3926
   -10.8065 -10.7710 -10.7067 -10.6516 -10.1199 -10.0936  -9.8285  -9.7895
    -9.6086  -9.6016  -9.4773  -9.4140  -9.0322  -9.0012  -8.7906  -8.7620
     5.3459   5.3964   6.0197   6.0396   6.2644   6.3429   6.5054   6.5706
     6.9743   7.0362   7.6896   7.7618   8.2486   8.3290   8.9123   8.9327
    10.0822  10.1588  10.9597  10.9904  11.5346  11.5835  11.7262  11.7448
    12.0778  12.1139  12.3905  12.4209  13.5510  13.5992

          k =-0.2500 0.4330 0.3132 (  5259 PWs)   bands (ev):

   -33.3241 -33.3239 -33.2026 -33.2024 -32.6156 -32.6155 -32.0092 -32.0090
   -14.5245 -14.4981 -14.3634 -14.3497 -13.8232 -13.8099 -13.3760 -13.3667
   -10.7943 -10.7345 -10.5860 -10.5447 -10.0829 -10.0505  -9.8280  -9.8037
    -9.6114  -9.5697  -9.3706  -9.3376  -9.0203  -8.9776  -8.6074  -8.5931
     4.7432   4.8086   5.8238   5.8958   6.1529   6.2163   6.8595   7.0077
     7.2881   7.4438   7.7779   7.8172   8.0039   8.1009   8.8210   8.9103
    10.5169  10.5944  10.8098  10.8413  11.0478  11.0981  11.9916  12.0242
    12.2478  12.3093  12.4570  12.5361  13.0331  13.1528

          k = 0.5000-0.2887 0.3132 (  5250 PWs)   bands (ev):

   -33.3232 -33.3230 -33.2036 -33.2035 -32.6151 -32.6150 -32.0096 -32.0094
   -14.5326 -14.5107 -14.3658 -14.3522 -13.8069 -13.8006 -13.3730 -13.3680
   -10.7834 -10.7362 -10.5838 -10.5638 -10.0480 -10.0260  -9.8149  -9.7679
    -9.5608  -9.5437  -9.4531  -9.4225  -8.9925  -8.9634  -8.6490  -8.6198
     4.8743   5.0096   5.7254   5.8062   6.3677   6.4584   6.7085   6.8095
     7.0596   7.0921   7.6736   7.7658   8.5682   8.6600   8.8044   8.8869
    10.1198  10.1800  10.8379  10.8873  11.4438  11.4939  11.6115  11.7003
    12.1659  12.2232  12.2535  12.3032  12.8480  12.9167

     the Fermi energy is    11.1516 ev

!    total energy              =   -2246.18222367 Ry
     Harris-Foulkes estimate   =   -2246.18222428 Ry
     estimated scf accuracy    <       0.00000086 Ry

     total all-electron energy =    -90250.525600 Ry

     The total energy is the sum of the following terms:

     one-electron contribution =     -41.16252730 Ry
     hartree contribution      =      45.30593113 Ry
     xc contribution           =    -258.88564160 Ry
     ewald contribution        =    -243.31098133 Ry
     one-center paw contrib.   =   -1748.12685827 Ry
     smearing contrib. (-TS)   =      -0.00214630 Ry

     convergence has been achieved in  10 iterations

     Writing output data file 2326.save
 
     init_run     :      2.80s CPU      4.34s WALL (       1 calls)
     electrons    :     44.86s CPU     47.39s WALL (       1 calls)

     Called by init_run:
     wfcinit      :      2.47s CPU      3.05s WALL (       1 calls)
     potinit      :      0.14s CPU      0.36s WALL (       1 calls)

     Called by electrons:
     c_bands      :     37.46s CPU     38.58s WALL (      10 calls)
     sum_band     :      5.29s CPU      5.48s WALL (      10 calls)
     v_of_rho     :      0.03s CPU      0.07s WALL (      11 calls)
     newd         :      0.85s CPU      0.99s WALL (      11 calls)
     PAW_pot      :      1.35s CPU      1.52s WALL (      11 calls)
     mix_rho      :      0.06s CPU      0.12s WALL (      10 calls)

     Called by c_bands:
     init_us_2    :      0.17s CPU      0.17s WALL (     756 calls)
     cegterg      :     35.12s CPU     36.15s WALL (     360 calls)

     Called by sum_band:
     sum_band:bec :      1.65s CPU      1.66s WALL (     360 calls)
     addusdens    :      0.18s CPU      0.18s WALL (      10 calls)

     Called by *egterg:
     h_psi        :     19.02s CPU     20.09s WALL (    1587 calls)
     s_psi        :      2.31s CPU      2.32s WALL (    1587 calls)
     g_psi        :      0.07s CPU      0.07s WALL (    1191 calls)
     cdiaghg      :     10.65s CPU     11.03s WALL (    1551 calls)

     Called by h_psi:
     h_psi:pot    :     18.81s CPU     19.88s WALL (    1587 calls)
     h_psi:calbec :      1.29s CPU      1.40s WALL (    1587 calls)
     vloc_psi     :     15.08s CPU     16.02s WALL (    1587 calls)
     add_vuspsi   :      2.42s CPU      2.45s WALL (    1587 calls)

     General routines
     calbec       :      1.71s CPU      1.83s WALL (    1947 calls)
     fft          :      0.03s CPU      0.27s WALL (     205 calls)
     fftw         :     15.96s CPU     16.95s WALL (  290200 calls)
     davcio       :      0.00s CPU      0.01s WALL (      36 calls)
 
     Parallel routines
     fft_scatter  :     10.28s CPU     11.00s WALL (  290405 calls)
 
     PWSCF        :  1m 8.29s CPU     1m35.36s WALL

 
   This run was terminated on:  10:57:57  16Nov2022            

=------------------------------------------------------------------------------=
   JOB DONE.
=------------------------------------------------------------------------------=
Removing 2326 from /home/shaharpit/tmp
