
     Program PWSCF v.6.1 (svn rev. 13369) starts on 30Nov2022 at 11:36:57 

     This program is part of the open-source Quantum ESPRESSO suite
     for quantum simulation of materials; please cite
         "P. Giannozzi et al., J. Phys.:Condens. Matter 21 395502 (2009);
          URL http://www.quantum-espresso.org", 
     in publications or presentations arising from this work. More details at
     http://www.quantum-espresso.org/quote

     Parallel version (MPI), running on     8 processors
     R & G space division:  proc/nbgrp/npool/nimage =       8
     Reading input from ./Gd_0.95.in
Warning: card &IONS ignored
Warning: card 	ION_DYNAMICS='BFGS', ignored
Warning: card / ignored
Warning: card &CELL ignored
Warning: card / ignored
Warning: card H 1.00794 H.PBE-KJPAW_PSL.0.1.UPF ignored

     Current dimensions of program PWSCF are:
     Max number of different atomic species (ntypx) = 10
     Max number of k-points (npk) =  40000
     Max angular momentum in pseudopotentials (lmaxx) =  3
               file Gd.rel-pbe-spdn-kjpaw_psl.1.0.0.UPF: wavefunction(s)  5P 5P renormalized

     Subspace diagonalization in iterative solution of the eigenvalue problem:
     a serial algorithm will be used

 
     Parallelization info
     --------------------
     sticks:   dense  smooth     PW     G-vecs:    dense   smooth      PW
     Min          77      77     24                 2494     2494     458
     Max          79      79     25                 2495     2495     465
     Sum         625     625    199                19957    19957    3705
 


     bravais-lattice index     =            0
     lattice parameter (alat)  =       6.7136  a.u.
     unit-cell volume          =     418.4075 (a.u.)^3
     number of atoms/cell      =            2
     number of atomic types    =            1
     number of electrons       =        22.00
     number of Kohn-Sham states=           30
     kinetic-energy cutoff     =      50.0000  Ry
     charge density cutoff     =     200.0000  Ry
     convergence threshold     =      1.0E-06
     mixing beta               =       0.7000
     number of iterations used =            8  plain     mixing
     Exchange-correlation      =  SLA  PW   PBX  PBC ( 1  4  3  4 0 0)
     Non magnetic calculation with spin-orbit


     celldm(1)=   6.713630  celldm(2)=   0.000000  celldm(3)=   0.000000
     celldm(4)=   0.000000  celldm(5)=   0.000000  celldm(6)=   0.000000

     crystal axes: (cart. coord. in units of alat)
               a(1) = (   1.000000   0.000000   0.000000 )  
               a(2) = (  -0.499986   0.866017   0.000000 )  
               a(3) = (   0.000000   0.000000   1.596617 )  

     reciprocal axes: (cart. coord. in units 2 pi/alat)
               b(1) = (  1.000000  0.577339  0.000000 )  
               b(2) = (  0.000000  1.154711  0.000000 )  
               b(3) = (  0.000000  0.000000  0.626324 )  


     PseudoPot. # 1 for Gd read from file:
     /home/shaharpit/MeamGdH/dft/qe_potentials/Gd.rel-pbe-spdn-kjpaw_psl.1.0.0.UPF
     MD5 check sum: cf50ec46d1536b4a0251694df1946a53
     Pseudo is Projector augmented-wave + core cor, Zval = 11.0
     Generated using "atomic" code by A. Dal Corso  v.6.2.2
     Shape of augmentation charge: PSQ
     Using radial grid of 1263 points, 10 beta functions with: 
                l(1) =   0
                l(2) =   0
                l(3) =   1
                l(4) =   1
                l(5) =   1
                l(6) =   1
                l(7) =   2
                l(8) =   2
                l(9) =   2
               l(10) =   2
     Q(r) pseudized with 0 coefficients 


     atomic species   valence    mass     pseudopotential
        Gd            11.00   157.25000     Gd( 1.00)

      4 Sym. Ops., with inversion, found ( 2 have fractional translation)



   Cartesian axes

     site n.     atom                  positions (alat units)
         1           Gd  tau(   1) = (   0.5000547   0.2886436   1.1974625  )
         2           Gd  tau(   2) = (  -0.0000406   0.5773738   0.3991542  )

     number of k points=    30  gaussian smearing, width (Ry)=  0.0100
                       cart. coord. in units 2pi/alat
        k(    1) = (   0.0000000   0.0000000   0.0000000), wk =   0.0156250
        k(    2) = (   0.0000000   0.0000000   0.1565811), wk =   0.0312500
        k(    3) = (   0.0000000   0.0000000  -0.3131622), wk =   0.0156250
        k(    4) = (   0.0000000   0.2886778   0.0000000), wk =   0.0312500
        k(    5) = (   0.0000000   0.2886778   0.1565811), wk =   0.0625000
        k(    6) = (   0.0000000   0.2886778  -0.3131622), wk =   0.0312500
        k(    7) = (   0.0000000  -0.5773556   0.0000000), wk =   0.0156250
        k(    8) = (   0.0000000  -0.5773556   0.1565811), wk =   0.0312500
        k(    9) = (   0.0000000  -0.5773556  -0.3131622), wk =   0.0156250
        k(   10) = (   0.2500000   0.1443348   0.0000000), wk =   0.0312500
        k(   11) = (   0.2500000   0.1443348   0.1565811), wk =   0.0625000
        k(   12) = (   0.2500000   0.1443348  -0.3131622), wk =   0.0312500
        k(   13) = (   0.2500000   0.4330126   0.0000000), wk =   0.0312500
        k(   14) = (   0.2500000   0.4330126   0.1565811), wk =   0.0625000
        k(   15) = (   0.2500000   0.4330126  -0.3131622), wk =   0.0312500
        k(   16) = (   0.2500000  -0.4330208   0.0000000), wk =   0.0312500
        k(   17) = (   0.2500000  -0.4330208   0.1565811), wk =   0.0625000
        k(   18) = (   0.2500000  -0.4330208  -0.3131622), wk =   0.0312500
        k(   19) = (   0.2500000  -0.1443430   0.0000000), wk =   0.0312500
        k(   20) = (   0.2500000  -0.1443430   0.1565811), wk =   0.0625000
        k(   21) = (   0.2500000  -0.1443430  -0.3131622), wk =   0.0312500
        k(   22) = (  -0.5000000  -0.2886697   0.0000000), wk =   0.0156250
        k(   23) = (  -0.5000000  -0.2886697   0.1565811), wk =   0.0312500
        k(   24) = (  -0.5000000  -0.2886697  -0.3131622), wk =   0.0156250
        k(   25) = (  -0.5000000   0.0000081   0.0000000), wk =   0.0312500
        k(   26) = (  -0.5000000   0.0000081   0.1565811), wk =   0.0625000
        k(   27) = (  -0.5000000   0.0000081  -0.3131622), wk =   0.0312500
        k(   28) = (  -0.5000000  -0.8660253   0.0000000), wk =   0.0156250
        k(   29) = (  -0.5000000  -0.8660253   0.1565811), wk =   0.0312500
        k(   30) = (  -0.5000000  -0.8660253  -0.3131622), wk =   0.0156250

     Dense  grid:    19957 G-vectors     FFT dimensions: (  32,  32,  50)

     Estimated max dynamical RAM per process >      16.56MB

     Estimated total allocated dynamical RAM >     132.49MB

     Initial potential from superposition of free atoms

     starting charge   21.96191, renormalised to   22.00000
     Starting wfc are   52 randomized atomic wfcs
     Checking if some PAW data can be deallocated... 

     total cpu time spent up to now is        4.7 secs

     per-process dynamical memory:    54.1 Mb

     Self-consistent Calculation

     iteration #  1     ecut=    50.00 Ry     beta=0.70
     Davidson diagonalization with overlap
     ethr =  1.00E-02,  avg # of iterations =  2.0

     Threshold (ethr) on eigenvalues was too large:
     Diagonalizing with lowered threshold

     Davidson diagonalization with overlap
     ethr =  5.85E-05,  avg # of iterations =  2.8

     total cpu time spent up to now is       12.9 secs

     total energy              =   -1119.22501615 Ry
     Harris-Foulkes estimate   =   -1119.23565297 Ry
     estimated scf accuracy    <       0.01750631 Ry

     iteration #  2     ecut=    50.00 Ry     beta=0.70
     Davidson diagonalization with overlap
     ethr =  7.96E-05,  avg # of iterations =  2.0

     total cpu time spent up to now is       16.6 secs

     total energy              =   -1119.22829165 Ry
     Harris-Foulkes estimate   =   -1119.22842446 Ry
     estimated scf accuracy    <       0.00041152 Ry

     iteration #  3     ecut=    50.00 Ry     beta=0.70
     Davidson diagonalization with overlap
     ethr =  1.87E-06,  avg # of iterations =  2.2

     total cpu time spent up to now is       18.2 secs

     total energy              =   -1119.22835068 Ry
     Harris-Foulkes estimate   =   -1119.22834909 Ry
     estimated scf accuracy    <       0.00002903 Ry

     iteration #  4     ecut=    50.00 Ry     beta=0.70
     Davidson diagonalization with overlap
     ethr =  1.32E-07,  avg # of iterations =  2.1

     total cpu time spent up to now is       19.6 secs

     End of self-consistent calculation

          k = 0.0000 0.0000 0.0000 (  2503 PWs)   bands (ev):

   -32.9033 -32.9033 -32.8048 -32.8048 -13.6452 -13.6452 -13.3310 -13.3310
    -9.6434  -9.6434  -9.0630  -9.0630  -8.9108  -8.9108  -8.8785  -8.8785
     6.3125   6.3125   8.8976   8.8976  12.6934  12.6934  12.7284  12.7284
    12.9478  12.9478  13.0131  13.0131  13.4056  13.4058

          k = 0.0000 0.0000 0.1566 (  2490 PWs)   bands (ev):

   -32.8890 -32.8890 -32.8194 -32.8194 -13.5975 -13.5975 -13.3753 -13.3753
    -9.5441  -9.5441  -9.0410  -9.0410  -9.0047  -9.0047  -8.9334  -8.9334
     6.7789   6.7789   8.7472   8.7472  12.1255  12.1255  12.6050  12.6050
    12.6070  12.6070  12.7966  12.7967  13.1060  13.1062

          k = 0.0000 0.0000-0.3132 (  2496 PWs)   bands (ev):

   -32.8544 -32.8544 -32.8544 -32.8544 -13.4846 -13.4846 -13.4846 -13.4846
    -9.2878  -9.2878  -9.2878  -9.2878  -8.9875  -8.9875  -8.9875  -8.9875
     7.8932   7.8932   7.8932   7.8932  11.9646  11.9646  11.9646  11.9647
    12.6884  12.6884  12.6887  12.6890  12.8624  12.8624

          k = 0.0000 0.2887 0.0000 (  2507 PWs)   bands (ev):

   -32.8637 -32.8637 -32.7903 -32.7903 -13.6766 -13.6766 -13.4597 -13.4597
    -9.6250  -9.6250  -9.2695  -9.2695  -9.2222  -9.2222  -8.9677  -8.9677
     7.7297   7.7297   9.9395   9.9395  11.0589  11.0589  11.4354  11.4355
    12.5288  12.5289  13.1130  13.1130  13.2464  13.2464

          k = 0.0000 0.2887 0.1566 (  2517 PWs)   bands (ev):

   -32.8530 -32.8530 -32.8011 -32.8011 -13.6455 -13.6455 -13.4920 -13.4920
    -9.5709  -9.5709  -9.2962  -9.2962  -9.2160  -9.2160  -9.0065  -9.0065
     8.0541   8.0541   9.8462   9.8462  10.7615  10.7615  11.5480  11.5480
    12.2520  12.2520  12.9471  12.9472  13.3295  13.3296

          k = 0.0000 0.2887-0.3132 (  2512 PWs)   bands (ev):

   -32.8271 -32.8271 -32.8271 -32.8271 -13.5693 -13.5693 -13.5693 -13.5693
    -9.4374  -9.4374  -9.4374  -9.4374  -9.1100  -9.1100  -9.1099  -9.1099
     8.9212   8.9212   8.9212   8.9212  11.2189  11.2189  11.2189  11.2189
    12.3370  12.3370  12.3371  12.3371  13.7419  13.7419

          k = 0.0000-0.5774 0.0000 (  2494 PWs)   bands (ev):

   -32.8159 -32.8159 -32.7836 -32.7836 -13.6914 -13.6914 -13.6159 -13.6159
    -9.5814  -9.5814  -9.5748  -9.5748  -9.3745  -9.3745  -9.0817  -9.0817
     9.3396   9.3396   9.5191   9.5191   9.9602   9.9602  11.5571  11.5571
    12.5551  12.5551  12.6481  12.6481  13.3852  13.3852

          k = 0.0000-0.5774 0.1566 (  2488 PWs)   bands (ev):

   -32.8111 -32.8111 -32.7883 -32.7883 -13.6832 -13.6832 -13.6296 -13.6296
    -9.6224  -9.6224  -9.6006  -9.6006  -9.2846  -9.2846  -9.0903  -9.0903
     8.9802   8.9802   9.5545   9.5545  10.7522  10.7522  10.8826  10.8826
    12.8685  12.8685  13.0373  13.0373  13.3111  13.3111

          k = 0.0000-0.5774-0.3132 (  2492 PWs)   bands (ev):

   -32.7997 -32.7997 -32.7997 -32.7997 -13.6592 -13.6592 -13.6592 -13.6592
    -9.6368  -9.6368  -9.6368  -9.6368  -9.1549  -9.1549  -9.1549  -9.1549
     9.1366   9.1366   9.1366   9.1366  10.9653  10.9653  10.9653  10.9653
    13.1089  13.1089  13.1089  13.1089  14.1802  14.1802

          k = 0.2500 0.1443 0.0000 (  2507 PWs)   bands (ev):

   -32.8637 -32.8637 -32.7903 -32.7903 -13.6766 -13.6766 -13.4597 -13.4597
    -9.6250  -9.6250  -9.2695  -9.2695  -9.2222  -9.2222  -8.9677  -8.9677
     7.7296   7.7296   9.9395   9.9395  11.0589  11.0589  11.4354  11.4354
    12.5287  12.5288  13.1130  13.1130  13.2465  13.2466

          k = 0.2500 0.1443 0.1566 (  2517 PWs)   bands (ev):

   -32.8530 -32.8530 -32.8011 -32.8011 -13.6455 -13.6455 -13.4920 -13.4920
    -9.5709  -9.5709  -9.2961  -9.2961  -9.2160  -9.2160  -9.0065  -9.0065
     8.0540   8.0540   9.8462   9.8462  10.7615  10.7615  11.5479  11.5479
    12.2520  12.2520  12.9471  12.9471  13.3297  13.3297

          k = 0.2500 0.1443-0.3132 (  2512 PWs)   bands (ev):

   -32.8272 -32.8272 -32.8272 -32.8272 -13.5693 -13.5693 -13.5693 -13.5693
    -9.4374  -9.4374  -9.4374  -9.4374  -9.1100  -9.1100  -9.1099  -9.1099
     8.9212   8.9212   8.9212   8.9212  11.2188  11.2188  11.2188  11.2188
    12.3370  12.3370  12.3370  12.3370  13.7420  13.7420

          k = 0.2500 0.4330 0.0000 (  2494 PWs)   bands (ev):

   -32.8161 -32.8161 -32.7834 -32.7834 -13.6933 -13.6933 -13.6061 -13.6061
    -9.5558  -9.5558  -9.5060  -9.5060  -9.4103  -9.4103  -9.1693  -9.1693
     9.6936   9.6936  10.1555  10.1555  10.6285  10.6285  10.7640  10.7640
    12.0957  12.0957  12.7181  12.7181  13.0983  13.0983

          k = 0.2500 0.4330 0.1566 (  2477 PWs)   bands (ev):

   -32.8113 -32.8113 -32.7882 -32.7882 -13.6832 -13.6832 -13.6213 -13.6213
    -9.6279  -9.6279  -9.5030  -9.5030  -9.3442  -9.3442  -9.1524  -9.1524
     9.6916   9.6916  10.0399  10.0399  10.7532  10.7532  11.1376  11.1376
    12.0843  12.0843  12.1718  12.1718  13.1088  13.1088

          k = 0.2500 0.4330-0.3132 (  2486 PWs)   bands (ev):

   -32.7998 -32.7998 -32.7998 -32.7998 -13.6588 -13.6588 -13.6509 -13.6509
    -9.6677  -9.6677  -9.5181  -9.5181  -9.2858  -9.2858  -9.1421  -9.1421
     9.7786   9.7786   9.8568   9.8568  11.2229  11.2229  11.2469  11.2469
    11.8374  11.8374  11.8377  11.8377  13.6385  13.6390

          k = 0.2500-0.4330 0.0000 (  2494 PWs)   bands (ev):

   -32.8161 -32.8161 -32.7834 -32.7834 -13.6933 -13.6933 -13.6060 -13.6060
    -9.5559  -9.5559  -9.5060  -9.5060  -9.4104  -9.4104  -9.1692  -9.1692
     9.6935   9.6935  10.1551  10.1551  10.6286  10.6286  10.7637  10.7637
    12.0956  12.0956  12.7187  12.7187  13.0979  13.0979

          k = 0.2500-0.4330 0.1566 (  2477 PWs)   bands (ev):

   -32.8113 -32.8113 -32.7882 -32.7882 -13.6832 -13.6832 -13.6213 -13.6213
    -9.6279  -9.6279  -9.5030  -9.5030  -9.3443  -9.3443  -9.1524  -9.1524
     9.6917   9.6917  10.0398  10.0398  10.7533  10.7533  11.1371  11.1371
    12.0848  12.0848  12.1719  12.1719  13.1085  13.1085

          k = 0.2500-0.4330-0.3132 (  2486 PWs)   bands (ev):

   -32.7998 -32.7998 -32.7998 -32.7998 -13.6588 -13.6588 -13.6509 -13.6509
    -9.6678  -9.6678  -9.5181  -9.5181  -9.2859  -9.2859  -9.1421  -9.1421
     9.7787   9.7787   9.8568   9.8568  11.2233  11.2233  11.2474  11.2474
    11.8371  11.8371  11.8373  11.8373  13.6384  13.6388

          k = 0.2500-0.1443 0.0000 (  2507 PWs)   bands (ev):

   -32.8637 -32.8637 -32.7903 -32.7903 -13.6766 -13.6766 -13.4596 -13.4596
    -9.6250  -9.6250  -9.2696  -9.2696  -9.2222  -9.2222  -8.9677  -8.9677
     7.7296   7.7296   9.9392   9.9392  11.0583  11.0583  11.4357  11.4357
    12.5290  12.5291  13.1139  13.1140  13.2465  13.2466

          k = 0.2500-0.1443 0.1566 (  2517 PWs)   bands (ev):

   -32.8530 -32.8530 -32.8011 -32.8011 -13.6455 -13.6455 -13.4920 -13.4920
    -9.5709  -9.5709  -9.2961  -9.2961  -9.2161  -9.2161  -9.0065  -9.0065
     8.0541   8.0541   9.8460   9.8460  10.7612  10.7612  11.5480  11.5480
    12.2527  12.2527  12.9476  12.9476  13.3293  13.3293

          k = 0.2500-0.1443-0.3132 (  2512 PWs)   bands (ev):

   -32.8271 -32.8271 -32.8271 -32.8271 -13.5693 -13.5693 -13.5693 -13.5693
    -9.4374  -9.4374  -9.4374  -9.4374  -9.1100  -9.1100  -9.1100  -9.1100
     8.9212   8.9212   8.9212   8.9212  11.2187  11.2187  11.2187  11.2187
    12.3374  12.3374  12.3374  12.3375  13.7420  13.7421

          k =-0.5000-0.2887 0.0000 (  2494 PWs)   bands (ev):

   -32.8159 -32.8159 -32.7836 -32.7836 -13.6914 -13.6914 -13.6159 -13.6159
    -9.5814  -9.5814  -9.5748  -9.5748  -9.3745  -9.3745  -9.0817  -9.0817
     9.3396   9.3396   9.5192   9.5192   9.9602   9.9602  11.5570  11.5570
    12.5552  12.5552  12.6481  12.6481  13.3850  13.3850

          k =-0.5000-0.2887 0.1566 (  2488 PWs)   bands (ev):

   -32.8111 -32.8111 -32.7883 -32.7883 -13.6832 -13.6832 -13.6296 -13.6296
    -9.6224  -9.6224  -9.6005  -9.6005  -9.2846  -9.2846  -9.0903  -9.0903
     8.9802   8.9802   9.5545   9.5545  10.7522  10.7522  10.8826  10.8826
    12.8685  12.8685  13.0374  13.0374  13.3110  13.3110

          k =-0.5000-0.2887-0.3132 (  2492 PWs)   bands (ev):

   -32.7997 -32.7997 -32.7997 -32.7997 -13.6592 -13.6592 -13.6592 -13.6592
    -9.6367  -9.6367  -9.6367  -9.6367  -9.1549  -9.1549  -9.1549  -9.1549
     9.1366   9.1366   9.1366   9.1366  10.9653  10.9653  10.9653  10.9653
    13.1088  13.1088  13.1088  13.1089  14.1804  14.1804

          k =-0.5000 0.0000 0.0000 (  2494 PWs)   bands (ev):

   -32.8161 -32.8161 -32.7834 -32.7834 -13.6933 -13.6933 -13.6060 -13.6060
    -9.5559  -9.5559  -9.5060  -9.5060  -9.4104  -9.4104  -9.1692  -9.1692
     9.6934   9.6934  10.1551  10.1551  10.6286  10.6286  10.7638  10.7638
    12.0957  12.0957  12.7186  12.7186  13.0979  13.0979

          k =-0.5000 0.0000 0.1566 (  2477 PWs)   bands (ev):

   -32.8113 -32.8113 -32.7882 -32.7882 -13.6832 -13.6832 -13.6213 -13.6213
    -9.6279  -9.6279  -9.5030  -9.5030  -9.3443  -9.3443  -9.1524  -9.1524
     9.6917   9.6917  10.0398  10.0398  10.7533  10.7533  11.1371  11.1371
    12.0848  12.0848  12.1719  12.1719  13.1085  13.1085

          k =-0.5000 0.0000-0.3132 (  2486 PWs)   bands (ev):

   -32.7998 -32.7998 -32.7998 -32.7998 -13.6588 -13.6588 -13.6509 -13.6509
    -9.6677  -9.6677  -9.5180  -9.5180  -9.2859  -9.2859  -9.1421  -9.1421
     9.7787   9.7787   9.8569   9.8569  11.2233  11.2233  11.2474  11.2474
    11.8370  11.8370  11.8372  11.8372  13.6390  13.6394

          k =-0.5000-0.8660 0.0000 (  2494 PWs)   bands (ev):

   -32.8159 -32.8159 -32.7836 -32.7836 -13.6915 -13.6915 -13.6158 -13.6158
    -9.5815  -9.5815  -9.5747  -9.5747  -9.3746  -9.3746  -9.0815  -9.0815
     9.3390   9.3390   9.5191   9.5191   9.9593   9.9593  11.5574  11.5574
    12.5551  12.5551  12.6496  12.6496  13.3857  13.3857

          k =-0.5000-0.8660 0.1566 (  2488 PWs)   bands (ev):

   -32.8112 -32.8112 -32.7883 -32.7883 -13.6833 -13.6833 -13.6296 -13.6296
    -9.6223  -9.6223  -9.6005  -9.6005  -9.2848  -9.2848  -9.0902  -9.0902
     8.9800   8.9800   9.5547   9.5547  10.7516  10.7516  10.8826  10.8826
    12.8686  12.8686  13.0375  13.0375  13.3120  13.3120

          k =-0.5000-0.8660-0.3132 (  2492 PWs)   bands (ev):

   -32.7997 -32.7997 -32.7997 -32.7997 -13.6592 -13.6592 -13.6592 -13.6592
    -9.6367  -9.6367  -9.6367  -9.6367  -9.1550  -9.1550  -9.1550  -9.1550
     9.1369   9.1369   9.1369   9.1369  10.9651  10.9651  10.9651  10.9651
    13.1088  13.1089  13.1089  13.1089  14.1801  14.1801

     the Fermi energy is    11.0751 ev

!    total energy              =   -1119.22835267 Ry
     Harris-Foulkes estimate   =   -1119.22835262 Ry
     estimated scf accuracy    <       0.00000014 Ry

     total all-electron energy =    -45121.400058 Ry

     The total energy is the sum of the following terms:

     one-electron contribution =     -22.39643892 Ry
     hartree contribution      =      20.64377726 Ry
     xc contribution           =    -125.71652936 Ry
     ewald contribution        =    -117.72808184 Ry
     one-center paw contrib.   =    -874.02872390 Ry
     smearing contrib. (-TS)   =      -0.00235592 Ry

     convergence has been achieved in   4 iterations

     Writing output data file 2342.save
 
     init_run     :      1.71s CPU      2.89s WALL (       1 calls)
     electrons    :     11.11s CPU     15.20s WALL (       1 calls)

     Called by init_run:
     wfcinit      :      1.33s CPU      1.86s WALL (       1 calls)
     potinit      :      0.12s CPU      0.44s WALL (       1 calls)

     Called by electrons:
     c_bands      :      8.44s CPU     11.86s WALL (       5 calls)
     sum_band     :      1.91s CPU      2.27s WALL (       5 calls)
     v_of_rho     :      0.01s CPU      0.03s WALL (       5 calls)
     newd         :      0.29s CPU      0.30s WALL (       5 calls)
     PAW_pot      :      0.56s CPU      0.84s WALL (       5 calls)
     mix_rho      :      0.02s CPU      0.02s WALL (       5 calls)

     Called by c_bands:
     init_us_2    :      0.04s CPU      0.05s WALL (     330 calls)
     cegterg      :      7.61s CPU     10.87s WALL (     150 calls)

     Called by sum_band:
     sum_band:bec :      0.33s CPU      0.33s WALL (     150 calls)
     addusdens    :      0.16s CPU      0.18s WALL (       5 calls)

     Called by *egterg:
     h_psi        :      6.25s CPU      9.12s WALL (     514 calls)
     s_psi        :      0.26s CPU      0.26s WALL (     514 calls)
     g_psi        :      0.02s CPU      0.02s WALL (     334 calls)
     cdiaghg      :      1.12s CPU      1.42s WALL (     454 calls)

     Called by h_psi:
     h_psi:pot    :      6.21s CPU      9.08s WALL (     514 calls)
     h_psi:calbec :      0.34s CPU      0.53s WALL (     514 calls)
     vloc_psi     :      5.58s CPU      8.25s WALL (     514 calls)
     add_vuspsi   :      0.28s CPU      0.29s WALL (     514 calls)

     General routines
     calbec       :      0.46s CPU      0.69s WALL (     664 calls)
     fft          :      0.07s CPU      0.20s WALL (      97 calls)
     fftw         :      6.15s CPU      9.07s WALL (   59528 calls)
     davcio       :      0.00s CPU      0.01s WALL (      30 calls)
 
     Parallel routines
     fft_scatter  :      4.74s CPU      7.56s WALL (   59625 calls)
 
     PWSCF        :    14.07s CPU        52.26s WALL

 
   This run was terminated on:  11:37:50  30Nov2022            

=------------------------------------------------------------------------------=
   JOB DONE.
=------------------------------------------------------------------------------=
Removing 2342 from /home/shaharpit/tmp
