
     Program PWSCF v.6.1 (svn rev. 13369) starts on 30Nov2022 at 11:36:57 

     This program is part of the open-source Quantum ESPRESSO suite
     for quantum simulation of materials; please cite
         "P. Giannozzi et al., J. Phys.:Condens. Matter 21 395502 (2009);
          URL http://www.quantum-espresso.org", 
     in publications or presentations arising from this work. More details at
     http://www.quantum-espresso.org/quote

     Parallel version (MPI), running on     8 processors
     R & G space division:  proc/nbgrp/npool/nimage =       8
     Reading input from ./Gd_0.9.in
Warning: card &IONS ignored
Warning: card 	ION_DYNAMICS='BFGS', ignored
Warning: card / ignored
Warning: card &CELL ignored
Warning: card / ignored
Warning: card H 1.00794 H.PBE-KJPAW_PSL.0.1.UPF ignored

     Current dimensions of program PWSCF are:
     Max number of different atomic species (ntypx) = 10
     Max number of k-points (npk) =  40000
     Max angular momentum in pseudopotentials (lmaxx) =  3
               file Gd.rel-pbe-spdn-kjpaw_psl.1.0.0.UPF: wavefunction(s)  5P 5P renormalized

     Subspace diagonalization in iterative solution of the eigenvalue problem:
     a serial algorithm will be used

 
     Parallelization info
     --------------------
     sticks:   dense  smooth     PW     G-vecs:    dense   smooth      PW
     Min          74      74     21                 2354     2354     373
     Max          75      75     22                 2359     2359     379
     Sum         595     595    169                18845    18845    3001
 


     bravais-lattice index     =            0
     lattice parameter (alat)  =       6.5936  a.u.
     unit-cell volume          =     396.3685 (a.u.)^3
     number of atoms/cell      =            2
     number of atomic types    =            1
     number of electrons       =        22.00
     number of Kohn-Sham states=           30
     kinetic-energy cutoff     =      50.0000  Ry
     charge density cutoff     =     200.0000  Ry
     convergence threshold     =      1.0E-06
     mixing beta               =       0.7000
     number of iterations used =            8  plain     mixing
     Exchange-correlation      =  SLA  PW   PBX  PBC ( 1  4  3  4 0 0)
     Non magnetic calculation with spin-orbit


     celldm(1)=   6.593632  celldm(2)=   0.000000  celldm(3)=   0.000000
     celldm(4)=   0.000000  celldm(5)=   0.000000  celldm(6)=   0.000000

     crystal axes: (cart. coord. in units of alat)
               a(1) = (   1.000000   0.000000   0.000000 )  
               a(2) = (  -0.500000   0.866015   0.000000 )  
               a(3) = (   0.000000   0.000000   1.596612 )  

     reciprocal axes: (cart. coord. in units 2 pi/alat)
               b(1) = (  1.000000  0.577357  0.000000 )  
               b(2) = (  0.000000  1.154714  0.000000 )  
               b(3) = (  0.000000  0.000000  0.626326 )  


     PseudoPot. # 1 for Gd read from file:
     /home/shaharpit/MeamGdH/dft/qe_potentials/Gd.rel-pbe-spdn-kjpaw_psl.1.0.0.UPF
     MD5 check sum: cf50ec46d1536b4a0251694df1946a53
     Pseudo is Projector augmented-wave + core cor, Zval = 11.0
     Generated using "atomic" code by A. Dal Corso  v.6.2.2
     Shape of augmentation charge: PSQ
     Using radial grid of 1263 points, 10 beta functions with: 
                l(1) =   0
                l(2) =   0
                l(3) =   1
                l(4) =   1
                l(5) =   1
                l(6) =   1
                l(7) =   2
                l(8) =   2
                l(9) =   2
               l(10) =   2
     Q(r) pseudized with 0 coefficients 


     atomic species   valence    mass     pseudopotential
        Gd            11.00   157.25000     Gd( 1.00)

      4 Sym. Ops., with inversion, found ( 2 have fractional translation)



   Cartesian axes

     site n.     atom                  positions (alat units)
         1           Gd  tau(   1) = (   0.5000500   0.2886428   1.1974593  )
         2           Gd  tau(   2) = (  -0.0000500   0.5773723   0.3991531  )

     number of k points=    30  gaussian smearing, width (Ry)=  0.0100
                       cart. coord. in units 2pi/alat
        k(    1) = (   0.0000000   0.0000000   0.0000000), wk =   0.0156250
        k(    2) = (   0.0000000   0.0000000   0.1565815), wk =   0.0312500
        k(    3) = (   0.0000000   0.0000000  -0.3131630), wk =   0.0156250
        k(    4) = (   0.0000000   0.2886786   0.0000000), wk =   0.0312500
        k(    5) = (   0.0000000   0.2886786   0.1565815), wk =   0.0625000
        k(    6) = (   0.0000000   0.2886786  -0.3131630), wk =   0.0312500
        k(    7) = (   0.0000000  -0.5773571   0.0000000), wk =   0.0156250
        k(    8) = (   0.0000000  -0.5773571   0.1565815), wk =   0.0312500
        k(    9) = (   0.0000000  -0.5773571  -0.3131630), wk =   0.0156250
        k(   10) = (   0.2500000   0.1443393   0.0000000), wk =   0.0312500
        k(   11) = (   0.2500000   0.1443393   0.1565815), wk =   0.0625000
        k(   12) = (   0.2500000   0.1443393  -0.3131630), wk =   0.0312500
        k(   13) = (   0.2500000   0.4330178   0.0000000), wk =   0.0312500
        k(   14) = (   0.2500000   0.4330178   0.1565815), wk =   0.0625000
        k(   15) = (   0.2500000   0.4330178  -0.3131630), wk =   0.0312500
        k(   16) = (  -0.5000000  -0.2886786   0.0000000), wk =   0.0156250
        k(   17) = (  -0.5000000  -0.2886786   0.1565815), wk =   0.0312500
        k(   18) = (  -0.5000000  -0.2886786  -0.3131630), wk =   0.0156250
        k(   19) = (  -0.5000000   0.0000000   0.0000000), wk =   0.0312500
        k(   20) = (  -0.5000000   0.0000000   0.1565815), wk =   0.0625000
        k(   21) = (  -0.5000000   0.0000000  -0.3131630), wk =   0.0312500
        k(   22) = (  -0.2500000   0.1443393   0.0000000), wk =   0.0312500
        k(   23) = (  -0.2500000   0.1443393  -0.1565815), wk =   0.0625000
        k(   24) = (  -0.2500000   0.1443393   0.3131630), wk =   0.0312500
        k(   25) = (  -0.2500000   0.4330178   0.0000000), wk =   0.0312500
        k(   26) = (  -0.2500000   0.4330178  -0.1565815), wk =   0.0625000
        k(   27) = (  -0.2500000   0.4330178   0.3131630), wk =   0.0312500
        k(   28) = (   0.5000000  -0.2886786   0.0000000), wk =   0.0156250
        k(   29) = (   0.5000000  -0.2886786  -0.1565815), wk =   0.0312500
        k(   30) = (   0.5000000  -0.2886786   0.3131630), wk =   0.0156250

     Dense  grid:    18845 G-vectors     FFT dimensions: (  30,  30,  48)

     Estimated max dynamical RAM per process >      15.43MB

     Estimated total allocated dynamical RAM >     123.44MB

     Initial potential from superposition of free atoms

     starting charge   21.96191, renormalised to   22.00000
     Starting wfc are   52 randomized atomic wfcs
     Checking if some PAW data can be deallocated... 

     total cpu time spent up to now is        4.3 secs

     per-process dynamical memory:    52.7 Mb

     Self-consistent Calculation

     iteration #  1     ecut=    50.00 Ry     beta=0.70
     Davidson diagonalization with overlap
     ethr =  1.00E-02,  avg # of iterations =  2.0

     Threshold (ethr) on eigenvalues was too large:
     Diagonalizing with lowered threshold

     Davidson diagonalization with overlap
     ethr =  5.99E-05,  avg # of iterations =  2.8

     total cpu time spent up to now is       10.5 secs

     total energy              =   -1119.21879372 Ry
     Harris-Foulkes estimate   =   -1119.22979641 Ry
     estimated scf accuracy    <       0.01757460 Ry

     iteration #  2     ecut=    50.00 Ry     beta=0.70
     Davidson diagonalization with overlap
     ethr =  7.99E-05,  avg # of iterations =  2.0

     total cpu time spent up to now is       14.3 secs

     total energy              =   -1119.22214457 Ry
     Harris-Foulkes estimate   =   -1119.22227952 Ry
     estimated scf accuracy    <       0.00038411 Ry

     iteration #  3     ecut=    50.00 Ry     beta=0.70
     Davidson diagonalization with overlap
     ethr =  1.75E-06,  avg # of iterations =  2.2

     total cpu time spent up to now is       17.0 secs

     total energy              =   -1119.22220102 Ry
     Harris-Foulkes estimate   =   -1119.22219995 Ry
     estimated scf accuracy    <       0.00002609 Ry

     iteration #  4     ecut=    50.00 Ry     beta=0.70
     Davidson diagonalization with overlap
     ethr =  1.19E-07,  avg # of iterations =  2.0

     total cpu time spent up to now is       18.3 secs

     End of self-consistent calculation

          k = 0.0000 0.0000 0.0000 (  2333 PWs)   bands (ev):

   -32.0839 -32.0839 -31.9598 -31.9598 -12.8359 -12.8359 -12.4545 -12.4545
    -8.8801  -8.8801  -8.2001  -8.2001  -8.0225  -8.0225  -7.9866  -7.9866
     6.9687   6.9687   9.5174   9.5174  13.4739  13.4739  13.6599  13.6601
    13.6950  13.6951  13.7735  13.7735  14.2010  14.2011

          k = 0.0000 0.0000 0.1566 (  2400 PWs)   bands (ev):

   -32.0660 -32.0660 -31.9782 -31.9782 -12.7774 -12.7774 -12.5077 -12.5077
    -8.7664  -8.7664  -8.1745  -8.1745  -8.1368  -8.1368  -8.0489  -8.0489
     7.4663   7.4663   9.4152   9.4152  12.9998  12.9998  13.3422  13.3422
    13.3474  13.3475  13.5358  13.5359  13.8783  13.8784

          k = 0.0000 0.0000-0.3132 (  2388 PWs)   bands (ev):

   -32.0223 -32.0223 -32.0223 -32.0223 -12.6399 -12.6399 -12.6399 -12.6399
    -8.4696  -8.4696  -8.4696  -8.4696  -8.1121  -8.1121  -8.1121  -8.1121
     8.6225   8.6225   8.6225   8.6225  12.7075  12.7075  12.7075  12.7076
    13.4315  13.4315  13.4318  13.4323  13.6074  13.6074

          k = 0.0000 0.2887 0.0000 (  2367 PWs)   bands (ev):

   -32.0340 -32.0340 -31.9413 -31.9413 -12.8700 -12.8700 -12.6100 -12.6100
    -8.8652  -8.8652  -8.4443  -8.4443  -8.3920  -8.3920  -8.0909  -8.0909
     8.4656   8.4656  10.5846  10.5846  11.7836  11.7836  12.1500  12.1500
    13.2895  13.2895  13.9127  13.9127  14.0348  14.0348

          k = 0.0000 0.2887 0.1566 (  2363 PWs)   bands (ev):

   -32.0205 -32.0205 -31.9550 -31.9550 -12.8328 -12.8328 -12.6489 -12.6489
    -8.8013  -8.8013  -8.4791  -8.4791  -8.3821  -8.3821  -8.1363  -8.1363
     8.7933   8.7933  10.5613  10.5613  11.4413  11.4413  12.2664  12.2664
    12.9695  12.9695  13.7664  13.7664  14.1108  14.1108

          k = 0.0000 0.2887-0.3132 (  2374 PWs)   bands (ev):

   -31.9879 -31.9879 -31.9879 -31.9879 -12.7416 -12.7416 -12.7416 -12.7416
    -8.6447  -8.6447  -8.6446  -8.6446  -8.2580  -8.2580  -8.2579  -8.2579
     9.6697   9.6697   9.6697   9.6697  11.8943  11.8943  11.8944  11.8944
    13.1018  13.1018  13.1018  13.1018  14.5554  14.5555

          k = 0.0000-0.5774 0.0000 (  2344 PWs)   bands (ev):

   -31.9734 -31.9734 -31.9328 -31.9328 -12.8862 -12.8862 -12.8000 -12.8000
    -8.8144  -8.8144  -8.8035  -8.8035  -8.5686  -8.5686  -8.2250  -8.2250
    10.0309  10.0309  10.0915  10.0915  10.5679  10.5679  12.4399  12.4399
    13.2937  13.2937  13.4585  13.4585  14.2298  14.2298

          k = 0.0000-0.5774 0.1566 (  2362 PWs)   bands (ev):

   -31.9675 -31.9675 -31.9388 -31.9388 -12.8777 -12.8777 -12.8164 -12.8164
    -8.8573  -8.8573  -8.8355  -8.8355  -8.4636  -8.4636  -8.2347  -8.2347
     9.5877   9.5877  10.1584  10.1584  11.4565  11.4565  11.5967  11.5967
    13.6596  13.6596  13.8482  13.8482  14.2609  14.2609

          k = 0.0000-0.5774-0.3132 (  2364 PWs)   bands (ev):

   -31.9531 -31.9531 -31.9531 -31.9531 -12.8510 -12.8510 -12.8510 -12.8510
    -8.8747  -8.8747  -8.8747  -8.8747  -8.3107  -8.3107  -8.3107  -8.3107
     9.7464   9.7464   9.7464   9.7464  11.6216  11.6216  11.6216  11.6216
    14.0577  14.0577  14.0577  14.0577  15.0265  15.0265

          k = 0.2500 0.1443 0.0000 (  2367 PWs)   bands (ev):

   -32.0340 -32.0340 -31.9413 -31.9413 -12.8700 -12.8700 -12.6100 -12.6100
    -8.8652  -8.8652  -8.4443  -8.4443  -8.3920  -8.3920  -8.0909  -8.0909
     8.4655   8.4655  10.5845  10.5845  11.7836  11.7836  12.1499  12.1499
    13.2894  13.2895  13.9128  13.9128  14.0348  14.0349

          k = 0.2500 0.1443 0.1566 (  2363 PWs)   bands (ev):

   -32.0205 -32.0205 -31.9550 -31.9550 -12.8328 -12.8328 -12.6489 -12.6489
    -8.8013  -8.8013  -8.4791  -8.4791  -8.3821  -8.3821  -8.1363  -8.1363
     8.7933   8.7933  10.5612  10.5612  11.4413  11.4413  12.2664  12.2664
    12.9695  12.9695  13.7664  13.7664  14.1109  14.1109

          k = 0.2500 0.1443-0.3132 (  2374 PWs)   bands (ev):

   -31.9879 -31.9879 -31.9879 -31.9879 -12.7416 -12.7416 -12.7416 -12.7416
    -8.6447  -8.6447  -8.6446  -8.6446  -8.2580  -8.2580  -8.2579  -8.2579
     9.6696   9.6696   9.6696   9.6696  11.8943  11.8943  11.8943  11.8943
    13.1017  13.1017  13.1018  13.1018  14.5555  14.5556

          k = 0.2500 0.4330 0.0000 (  2373 PWs)   bands (ev):

   -31.9738 -31.9738 -31.9325 -31.9325 -12.8886 -12.8886 -12.7860 -12.7860
    -8.7853  -8.7853  -8.7245  -8.7245  -8.6133  -8.6133  -8.3293  -8.3293
    10.4824  10.4824  10.7627  10.7627  11.3191  11.3191  11.4722  11.4722
    12.8277  12.8277  13.5251  13.5251  13.9224  13.9224

          k = 0.2500 0.4330 0.1566 (  2362 PWs)   bands (ev):

   -31.9677 -31.9677 -31.9385 -31.9385 -12.8774 -12.8774 -12.8045 -12.8045
    -8.8689  -8.8689  -8.7207  -8.7207  -8.5350  -8.5350  -8.3084  -8.3084
    10.4305  10.4305  10.6726  10.6726  11.4420  11.4420  11.8710  11.8710
    12.8505  12.8505  12.9500  12.9500  13.9106  13.9106

          k = 0.2500 0.4330-0.3132 (  2348 PWs)   bands (ev):

   -31.9531 -31.9531 -31.9531 -31.9531 -12.8501 -12.8501 -12.8392 -12.8392
    -8.9151  -8.9151  -8.7380  -8.7380  -8.4648  -8.4648  -8.2955  -8.2955
    10.4460  10.4460  10.5309  10.5309  11.9600  11.9600  11.9686  11.9686
    12.6039  12.6039  12.6213  12.6213  14.4376  14.4385

          k =-0.5000-0.2887 0.0000 (  2344 PWs)   bands (ev):

   -31.9734 -31.9734 -31.9328 -31.9328 -12.8862 -12.8862 -12.8000 -12.8000
    -8.8144  -8.8144  -8.8035  -8.8035  -8.5686  -8.5686  -8.2250  -8.2250
    10.0308  10.0308  10.0915  10.0915  10.5679  10.5679  12.4398  12.4398
    13.2938  13.2938  13.4585  13.4585  14.2297  14.2297

          k =-0.5000-0.2887 0.1566 (  2362 PWs)   bands (ev):

   -31.9675 -31.9675 -31.9388 -31.9388 -12.8777 -12.8777 -12.8164 -12.8164
    -8.8573  -8.8573  -8.8355  -8.8355  -8.4636  -8.4636  -8.2347  -8.2347
     9.5877   9.5877  10.1584  10.1584  11.4565  11.4565  11.5966  11.5966
    13.6596  13.6596  13.8482  13.8482  14.2608  14.2608

          k =-0.5000-0.2887-0.3132 (  2364 PWs)   bands (ev):

   -31.9531 -31.9531 -31.9531 -31.9531 -12.8510 -12.8510 -12.8510 -12.8510
    -8.8747  -8.8747  -8.8747  -8.8747  -8.3107  -8.3107  -8.3107  -8.3107
     9.7464   9.7464   9.7464   9.7464  11.6216  11.6216  11.6216  11.6216
    14.0576  14.0576  14.0576  14.0576  15.0265  15.0266

          k =-0.5000 0.0000 0.0000 (  2373 PWs)   bands (ev):

   -31.9738 -31.9738 -31.9325 -31.9325 -12.8886 -12.8886 -12.7859 -12.7859
    -8.7853  -8.7853  -8.7244  -8.7244  -8.6134  -8.6134  -8.3292  -8.3292
    10.4822  10.4822  10.7623  10.7623  11.3193  11.3193  11.4720  11.4720
    12.8277  12.8277  13.5256  13.5256  13.9220  13.9220

          k =-0.5000 0.0000 0.1566 (  2362 PWs)   bands (ev):

   -31.9678 -31.9678 -31.9385 -31.9385 -12.8774 -12.8774 -12.8045 -12.8045
    -8.8689  -8.8689  -8.7206  -8.7206  -8.5351  -8.5351  -8.3083  -8.3083
    10.4305  10.4305  10.6725  10.6725  11.4422  11.4422  11.8704  11.8704
    12.8511  12.8511  12.9501  12.9501  13.9103  13.9103

          k =-0.5000 0.0000-0.3132 (  2348 PWs)   bands (ev):

   -31.9531 -31.9531 -31.9531 -31.9531 -12.8501 -12.8501 -12.8391 -12.8391
    -8.9151  -8.9151  -8.7378  -8.7378  -8.4650  -8.4650  -8.2956  -8.2956
    10.4460  10.4460  10.5310  10.5310  11.9606  11.9606  11.9692  11.9692
    12.6033  12.6033  12.6207  12.6207  14.4370  14.4375

          k =-0.2500 0.1443 0.0000 (  2367 PWs)   bands (ev):

   -32.0340 -32.0340 -31.9413 -31.9413 -12.8701 -12.8701 -12.6100 -12.6100
    -8.8652  -8.8652  -8.4444  -8.4444  -8.3920  -8.3920  -8.0909  -8.0909
     8.4655   8.4655  10.5841  10.5841  11.7829  11.7829  12.1502  12.1502
    13.2896  13.2897  13.9134  13.9134  14.0354  14.0354

          k =-0.2500 0.1443-0.1566 (  2363 PWs)   bands (ev):

   -32.0205 -32.0205 -31.9550 -31.9550 -12.8328 -12.8328 -12.6489 -12.6489
    -8.8013  -8.8013  -8.4791  -8.4791  -8.3821  -8.3821  -8.1363  -8.1363
     8.7933   8.7933  10.5610  10.5610  11.4410  11.4410  12.2664  12.2664
    12.9702  12.9702  13.7669  13.7669  14.1107  14.1107

          k =-0.2500 0.1443 0.3132 (  2374 PWs)   bands (ev):

   -31.9879 -31.9879 -31.9879 -31.9879 -12.7416 -12.7416 -12.7416 -12.7416
    -8.6446  -8.6446  -8.6446  -8.6446  -8.2580  -8.2580  -8.2580  -8.2580
     9.6697   9.6697   9.6697   9.6697  11.8941  11.8941  11.8941  11.8941
    13.1022  13.1022  13.1022  13.1022  14.5557  14.5558

          k =-0.2500 0.4330 0.0000 (  2373 PWs)   bands (ev):

   -31.9738 -31.9738 -31.9325 -31.9325 -12.8886 -12.8886 -12.7859 -12.7859
    -8.7853  -8.7853  -8.7245  -8.7245  -8.6134  -8.6134  -8.3292  -8.3292
    10.4822  10.4822  10.7623  10.7623  11.3193  11.3193  11.4719  11.4719
    12.8277  12.8277  13.5257  13.5257  13.9220  13.9220

          k =-0.2500 0.4330-0.1566 (  2362 PWs)   bands (ev):

   -31.9678 -31.9678 -31.9385 -31.9385 -12.8774 -12.8774 -12.8045 -12.8045
    -8.8689  -8.8689  -8.7206  -8.7206  -8.5351  -8.5351  -8.3083  -8.3083
    10.4305  10.4305  10.6725  10.6725  11.4421  11.4421  11.8704  11.8704
    12.8511  12.8511  12.9501  12.9501  13.9103  13.9103

          k =-0.2500 0.4330 0.3132 (  2348 PWs)   bands (ev):

   -31.9531 -31.9531 -31.9531 -31.9531 -12.8501 -12.8501 -12.8391 -12.8391
    -8.9151  -8.9151  -8.7379  -8.7379  -8.4650  -8.4650  -8.2956  -8.2956
    10.4460  10.4460  10.5310  10.5310  11.9605  11.9605  11.9692  11.9692
    12.6034  12.6034  12.6208  12.6208  14.4368  14.4371

          k = 0.5000-0.2887 0.0000 (  2344 PWs)   bands (ev):

   -31.9735 -31.9735 -31.9328 -31.9328 -12.8862 -12.8862 -12.7999 -12.7999
    -8.8145  -8.8145  -8.8034  -8.8034  -8.5688  -8.5688  -8.2248  -8.2248
    10.0302  10.0302  10.0914  10.0914  10.5669  10.5669  12.4401  12.4401
    13.2936  13.2936  13.4603  13.4603  14.2303  14.2303

          k = 0.5000-0.2887-0.1566 (  2362 PWs)   bands (ev):

   -31.9675 -31.9675 -31.9387 -31.9387 -12.8777 -12.8777 -12.8163 -12.8163
    -8.8573  -8.8573  -8.8355  -8.8355  -8.4638  -8.4638  -8.2346  -8.2346
     9.5875   9.5875  10.1586  10.1586  11.4559  11.4559  11.5967  11.5967
    13.6596  13.6596  13.8484  13.8484  14.2618  14.2618

          k = 0.5000-0.2887 0.3132 (  2364 PWs)   bands (ev):

   -31.9531 -31.9531 -31.9531 -31.9531 -12.8510 -12.8510 -12.8510 -12.8510
    -8.8746  -8.8746  -8.8746  -8.8746  -8.3108  -8.3108  -8.3108  -8.3108
     9.7467   9.7467   9.7467   9.7467  11.6214  11.6214  11.6214  11.6214
    14.0575  14.0575  14.0576  14.0577  15.0264  15.0265

     the Fermi energy is    11.7873 ev

!    total energy              =   -1119.22220266 Ry
     Harris-Foulkes estimate   =   -1119.22220259 Ry
     estimated scf accuracy    <       0.00000012 Ry

     total all-electron energy =    -45121.393908 Ry

     The total energy is the sum of the following terms:

     one-electron contribution =     -19.31021143 Ry
     hartree contribution      =      19.78747680 Ry
     xc contribution           =    -125.79631921 Ry
     ewald contribution        =    -119.87082663 Ry
     one-center paw contrib.   =    -874.03010098 Ry
     smearing contrib. (-TS)   =      -0.00222122 Ry

     convergence has been achieved in   4 iterations

     Writing output data file 2341.save
 
     init_run     :      1.21s CPU      2.54s WALL (       1 calls)
     electrons    :     10.63s CPU     14.35s WALL (       1 calls)

     Called by init_run:
     wfcinit      :      0.86s CPU      1.52s WALL (       1 calls)
     potinit      :      0.12s CPU      0.41s WALL (       1 calls)

     Called by electrons:
     c_bands      :      8.02s CPU     10.83s WALL (       5 calls)
     sum_band     :      1.68s CPU      2.14s WALL (       5 calls)
     v_of_rho     :      0.02s CPU      0.03s WALL (       5 calls)
     newd         :      0.29s CPU      0.36s WALL (       5 calls)
     PAW_pot      :      0.71s CPU      0.99s WALL (       5 calls)
     mix_rho      :      0.01s CPU      0.02s WALL (       5 calls)

     Called by c_bands:
     init_us_2    :      0.04s CPU      0.04s WALL (     330 calls)
     cegterg      :      7.25s CPU      9.96s WALL (     150 calls)

     Called by sum_band:
     sum_band:bec :      0.33s CPU      0.33s WALL (     150 calls)
     addusdens    :      0.15s CPU      0.18s WALL (       5 calls)

     Called by *egterg:
     h_psi        :      5.40s CPU      7.77s WALL (     511 calls)
     s_psi        :      0.26s CPU      0.28s WALL (     511 calls)
     g_psi        :      0.02s CPU      0.02s WALL (     331 calls)
     cdiaghg      :      1.00s CPU      1.37s WALL (     451 calls)

     Called by h_psi:
     h_psi:pot    :      5.37s CPU      7.73s WALL (     511 calls)
     h_psi:calbec :      0.84s CPU      1.68s WALL (     511 calls)
     vloc_psi     :      4.25s CPU      5.76s WALL (     511 calls)
     add_vuspsi   :      0.27s CPU      0.29s WALL (     511 calls)

     General routines
     calbec       :      1.05s CPU      2.03s WALL (     661 calls)
     fft          :      0.05s CPU      0.21s WALL (      97 calls)
     fftw         :      4.62s CPU      6.35s WALL (   59548 calls)
     davcio       :      0.00s CPU      0.01s WALL (      30 calls)
 
     Parallel routines
     fft_scatter  :      2.67s CPU      4.26s WALL (   59645 calls)
 
     PWSCF        :    13.21s CPU        38.09s WALL

 
   This run was terminated on:  11:37:35  30Nov2022            

=------------------------------------------------------------------------------=
   JOB DONE.
=------------------------------------------------------------------------------=
Removing 2341 from /home/shaharpit/tmp
