
     Program PWSCF v.6.1 (svn rev. 13369) starts on 30Nov2022 at 11:36:57 

     This program is part of the open-source Quantum ESPRESSO suite
     for quantum simulation of materials; please cite
         "P. Giannozzi et al., J. Phys.:Condens. Matter 21 395502 (2009);
          URL http://www.quantum-espresso.org", 
     in publications or presentations arising from this work. More details at
     http://www.quantum-espresso.org/quote

     Parallel version (MPI), running on     8 processors
     R & G space division:  proc/nbgrp/npool/nimage =       8
     Reading input from ./Gd_0.8.in
Warning: card &IONS ignored
Warning: card 	ION_DYNAMICS='BFGS', ignored
Warning: card / ignored
Warning: card &CELL ignored
Warning: card / ignored
Warning: card H 1.00794 H.PBE-KJPAW_PSL.0.1.UPF ignored

     Current dimensions of program PWSCF are:
     Max number of different atomic species (ntypx) = 10
     Max number of k-points (npk) =  40000
     Max angular momentum in pseudopotentials (lmaxx) =  3
               file Gd.rel-pbe-spdn-kjpaw_psl.1.0.0.UPF: wavefunction(s)  5P 5P renormalized

     Subspace diagonalization in iterative solution of the eigenvalue problem:
     a serial algorithm will be used

 
     Parallelization info
     --------------------
     sticks:   dense  smooth     PW     G-vecs:    dense   smooth      PW
     Min          69      69     23                 2105     2105     395
     Max          70      70     24                 2110     2110     400
     Sum         559     559    187                16863    16863    3177
 


     bravais-lattice index     =            0
     lattice parameter (alat)  =       6.3398  a.u.
     unit-cell volume          =     352.3410 (a.u.)^3
     number of atoms/cell      =            2
     number of atomic types    =            1
     number of electrons       =        22.00
     number of Kohn-Sham states=           30
     kinetic-energy cutoff     =      50.0000  Ry
     charge density cutoff     =     200.0000  Ry
     convergence threshold     =      1.0E-06
     mixing beta               =       0.7000
     number of iterations used =            8  plain     mixing
     Exchange-correlation      =  SLA  PW   PBX  PBC ( 1  4  3  4 0 0)
     Non magnetic calculation with spin-orbit


     celldm(1)=   6.339842  celldm(2)=   0.000000  celldm(3)=   0.000000
     celldm(4)=   0.000000  celldm(5)=   0.000000  celldm(6)=   0.000000

     crystal axes: (cart. coord. in units of alat)
               a(1) = (   1.000000   0.000000   0.000000 )  
               a(2) = (  -0.499985   0.866017   0.000000 )  
               a(3) = (   0.000000   0.000000   1.596620 )  

     reciprocal axes: (cart. coord. in units 2 pi/alat)
               b(1) = (  1.000000  0.577339  0.000000 )  
               b(2) = (  0.000000  1.154712  0.000000 )  
               b(3) = (  0.000000  0.000000  0.626323 )  


     PseudoPot. # 1 for Gd read from file:
     /home/shaharpit/MeamGdH/dft/qe_potentials/Gd.rel-pbe-spdn-kjpaw_psl.1.0.0.UPF
     MD5 check sum: cf50ec46d1536b4a0251694df1946a53
     Pseudo is Projector augmented-wave + core cor, Zval = 11.0
     Generated using "atomic" code by A. Dal Corso  v.6.2.2
     Shape of augmentation charge: PSQ
     Using radial grid of 1263 points, 10 beta functions with: 
                l(1) =   0
                l(2) =   0
                l(3) =   1
                l(4) =   1
                l(5) =   1
                l(6) =   1
                l(7) =   2
                l(8) =   2
                l(9) =   2
               l(10) =   2
     Q(r) pseudized with 0 coefficients 


     atomic species   valence    mass     pseudopotential
        Gd            11.00   157.25000     Gd( 1.00)

      2 Sym. Ops., with inversion, found
          (note:  2 additional sym.ops. were found but ignored
           their fractional translations are incommensurate with FFT grid)


   Cartesian axes

     site n.     atom                  positions (alat units)
         1           Gd  tau(   1) = (   0.5000550   0.2886434   1.1974649  )
         2           Gd  tau(   2) = (  -0.0000401   0.5773734   0.3991550  )

     number of k points=    36  gaussian smearing, width (Ry)=  0.0100
                       cart. coord. in units 2pi/alat
        k(    1) = (   0.0000000   0.0000000   0.0000000), wk =   0.0156250
        k(    2) = (   0.0000000   0.0000000   0.1565808), wk =   0.0312500
        k(    3) = (   0.0000000   0.0000000  -0.3131616), wk =   0.0156250
        k(    4) = (   0.0000000   0.2886780   0.0000000), wk =   0.0312500
        k(    5) = (   0.0000000   0.2886780   0.1565808), wk =   0.0312500
        k(    6) = (   0.0000000   0.2886780  -0.3131616), wk =   0.0312500
        k(    7) = (   0.0000000  -0.5773560   0.0000000), wk =   0.0156250
        k(    8) = (   0.0000000  -0.5773560   0.1565808), wk =   0.0312500
        k(    9) = (   0.0000000  -0.5773560  -0.3131616), wk =   0.0156250
        k(   10) = (   0.2500000   0.1443347   0.0000000), wk =   0.0312500
        k(   11) = (   0.2500000   0.1443347   0.1565808), wk =   0.0312500
        k(   12) = (   0.2500000   0.1443347  -0.3131616), wk =   0.0312500
        k(   13) = (   0.2500000   0.4330127   0.0000000), wk =   0.0312500
        k(   14) = (   0.2500000   0.4330127   0.1565808), wk =   0.0312500
        k(   15) = (   0.2500000   0.4330127  -0.3131616), wk =   0.0312500
        k(   16) = (   0.2500000  -0.4330213   0.0000000), wk =   0.0312500
        k(   17) = (   0.2500000  -0.4330213   0.1565808), wk =   0.0312500
        k(   18) = (   0.2500000  -0.4330213  -0.3131616), wk =   0.0312500
        k(   19) = (   0.2500000  -0.1443433   0.0000000), wk =   0.0312500
        k(   20) = (   0.2500000  -0.1443433   0.1565808), wk =   0.0312500
        k(   21) = (   0.2500000  -0.1443433  -0.3131616), wk =   0.0312500
        k(   22) = (  -0.5000000  -0.2886694   0.0000000), wk =   0.0156250
        k(   23) = (  -0.5000000  -0.2886694   0.1565808), wk =   0.0312500
        k(   24) = (  -0.5000000  -0.2886694  -0.3131616), wk =   0.0156250
        k(   25) = (  -0.5000000   0.0000086   0.0000000), wk =   0.0312500
        k(   26) = (  -0.5000000   0.0000086   0.1565808), wk =   0.0312500
        k(   27) = (  -0.5000000   0.0000086  -0.3131616), wk =   0.0312500
        k(   28) = (  -0.5000000  -0.8660253   0.0000000), wk =   0.0156250
        k(   29) = (  -0.5000000  -0.8660253   0.1565808), wk =   0.0312500
        k(   30) = (  -0.5000000  -0.8660253  -0.3131616), wk =   0.0156250
        k(   31) = (   0.0000000  -0.2886780   0.1565808), wk =   0.0312500
        k(   32) = (  -0.2500000  -0.1443347   0.1565808), wk =   0.0312500
        k(   33) = (  -0.2500000  -0.4330127   0.1565808), wk =   0.0312500
        k(   34) = (  -0.2500000   0.4330213   0.1565808), wk =   0.0312500
        k(   35) = (  -0.2500000   0.1443433   0.1565808), wk =   0.0312500
        k(   36) = (   0.5000000  -0.0000086   0.1565808), wk =   0.0312500

     Dense  grid:    16863 G-vectors     FFT dimensions: (  30,  30,  45)

     Estimated max dynamical RAM per process >      15.37MB

     Estimated total allocated dynamical RAM >     122.98MB

     Initial potential from superposition of free atoms

     starting charge   21.96191, renormalised to   22.00000
     Starting wfc are   52 randomized atomic wfcs
     Checking if some PAW data can be deallocated... 

     total cpu time spent up to now is        4.7 secs

     per-process dynamical memory:    52.7 Mb

     Self-consistent Calculation

     iteration #  1     ecut=    50.00 Ry     beta=0.70
     Davidson diagonalization with overlap
     ethr =  1.00E-02,  avg # of iterations =  2.0

     Threshold (ethr) on eigenvalues was too large:
     Diagonalizing with lowered threshold

     Davidson diagonalization with overlap
     ethr =  6.76E-05,  avg # of iterations =  2.8

     total cpu time spent up to now is       13.0 secs

     total energy              =   -1119.19153139 Ry
     Harris-Foulkes estimate   =   -1119.20411578 Ry
     estimated scf accuracy    <       0.01897844 Ry

     iteration #  2     ecut=    50.00 Ry     beta=0.70
     Davidson diagonalization with overlap
     ethr =  8.63E-05,  avg # of iterations =  2.0

     total cpu time spent up to now is       17.0 secs

     total energy              =   -1119.19525602 Ry
     Harris-Foulkes estimate   =   -1119.19540678 Ry
     estimated scf accuracy    <       0.00033809 Ry

     iteration #  3     ecut=    50.00 Ry     beta=0.70
     Davidson diagonalization with overlap
     ethr =  1.54E-06,  avg # of iterations =  2.8

     total cpu time spent up to now is       19.0 secs

     total energy              =   -1119.19531075 Ry
     Harris-Foulkes estimate   =   -1119.19531130 Ry
     estimated scf accuracy    <       0.00002102 Ry

     iteration #  4     ecut=    50.00 Ry     beta=0.70
     Davidson diagonalization with overlap
     ethr =  9.55E-08,  avg # of iterations =  1.6

     total cpu time spent up to now is       20.5 secs

     End of self-consistent calculation

          k = 0.0000 0.0000 0.0000 (  2093 PWs)   bands (ev):

   -30.2291 -30.2291 -30.0270 -30.0270 -11.0060 -11.0060 -10.4275 -10.4275
    -7.1435  -7.1435  -6.2075  -6.2075  -5.9617  -5.9617  -5.9176  -5.9176
     8.5694   8.5694  10.9756  10.9756  15.2024  15.2025  15.4283  15.4283
    15.5345  15.5345  15.9786  15.9788  16.0483  16.0483

          k = 0.0000 0.0000 0.1566 (  2099 PWs)   bands (ev):

   -30.2001 -30.2001 -30.0572 -30.0572 -10.9151 -10.9151 -10.5059 -10.5059
    -6.9954  -6.9954  -6.1721  -6.1721  -6.1339  -6.1339  -5.9984  -5.9984
     9.1446   9.1446  10.9821  10.9821  15.0509  15.0509  15.0674  15.0674
    15.1176  15.1176  15.2501  15.2502  15.6699  15.6699

          k = 0.0000 0.0000-0.3132 (  2098 PWs)   bands (ev):

   -30.1293 -30.1293 -30.1293 -30.1293 -10.7042 -10.7042 -10.7042 -10.7042
    -6.5983  -6.5983  -6.5982  -6.5982  -6.0859  -6.0859  -6.0859  -6.0859
    10.3801  10.3801  10.3803  10.3803  14.4670  14.4670  14.4670  14.4672
    15.1539  15.1539  15.1541  15.1544  15.3353  15.3353

          k = 0.0000 0.2887 0.0000 (  2118 PWs)   bands (ev):

   -30.1478 -30.1478 -29.9965 -29.9965 -11.0410 -11.0410 -10.6600 -10.6600
    -7.1502  -7.1502  -6.5533  -6.5533  -6.4891  -6.4891  -6.0625  -6.0625
    10.2537  10.2537  12.0868  12.0868  13.4746  13.4746  13.8410  13.8410
    15.0692  15.0692  15.7330  15.7330  15.9335  15.9335

          k = 0.0000 0.2887 0.1566 (  2100 PWs)   bands (ev):

   -30.1259 -30.1259 -30.0190 -30.0190 -10.9868 -10.9868 -10.7172 -10.7172
    -7.0596  -7.0596  -6.6113  -6.6113  -6.4684  -6.4684  -6.1256  -6.1256
    10.5719  10.5719  12.2143  12.2143  13.0655  13.0655  13.9683  13.9683
    14.6423  14.6423  15.7042  15.7042  15.9296  15.9296

          k = 0.0000 0.2887-0.3132 (  2086 PWs)   bands (ev):

   -30.0727 -30.0727 -30.0727 -30.0727 -10.8536 -10.8536 -10.8535 -10.8535
    -6.8408  -6.8408  -6.8408  -6.8408  -6.2966  -6.2966  -6.2965  -6.2965
    11.4427  11.4427  11.4428  11.4428  13.4855  13.4855  13.4856  13.4856
    14.9142  14.9142  14.9143  14.9143  16.4499  16.4500

          k = 0.0000-0.5774 0.0000 (  2124 PWs)   bands (ev):

   -30.0484 -30.0484 -29.9823 -29.9823 -11.0578 -11.0578 -10.9489 -10.9489
    -7.0820  -7.0820  -7.0523  -7.0523  -6.7305  -6.7305  -6.2512  -6.2512
    11.4167  11.4167  11.6626  11.6626  11.9895  11.9895  14.5714  14.5714
    14.9920  14.9920  15.3857  15.3857  16.2213  16.2213

          k = 0.0000-0.5774 0.1566 (  2098 PWs)   bands (ev):

   -30.0387 -30.0387 -29.9920 -29.9920 -11.0512 -11.0512 -10.9728 -10.9728
    -7.1199  -7.1199  -7.1057  -7.1057  -6.5857  -6.5857  -6.2634  -6.2634
    11.0018  11.0018  11.5554  11.5554  13.1127  13.1127  13.2762  13.2762
    15.4655  15.4655  15.7801  15.7801  16.5819  16.5819

          k = 0.0000-0.5774-0.3132 (  2100 PWs)   bands (ev):

   -30.0153 -30.0153 -30.0153 -30.0153 -11.0206 -11.0206 -11.0206 -11.0206
    -7.1465  -7.1465  -7.1464  -7.1464  -6.3702  -6.3702  -6.3702  -6.3702
    11.1743  11.1743  11.1744  11.1744  13.1368  13.1368  13.1369  13.1369
    16.3343  16.3343  16.3344  16.3344  17.0078  17.0078

          k = 0.2500 0.1443 0.0000 (  2118 PWs)   bands (ev):

   -30.1478 -30.1478 -29.9965 -29.9965 -11.0410 -11.0410 -10.6600 -10.6600
    -7.1502  -7.1502  -6.5532  -6.5532  -6.4891  -6.4891  -6.0625  -6.0625
    10.2537  10.2537  12.0868  12.0868  13.4746  13.4746  13.8409  13.8409
    15.0692  15.0692  15.7332  15.7332  15.9335  15.9335

          k = 0.2500 0.1443 0.1566 (  2100 PWs)   bands (ev):

   -30.1259 -30.1259 -30.0190 -30.0190 -10.9868 -10.9868 -10.7172 -10.7172
    -7.0596  -7.0596  -6.6113  -6.6113  -6.4683  -6.4683  -6.1255  -6.1255
    10.5718  10.5718  12.2143  12.2143  13.0656  13.0656  13.9681  13.9681
    14.6423  14.6423  15.7041  15.7041  15.9298  15.9298

          k = 0.2500 0.1443-0.3132 (  2086 PWs)   bands (ev):

   -30.0727 -30.0727 -30.0727 -30.0727 -10.8535 -10.8535 -10.8535 -10.8535
    -6.8408  -6.8408  -6.8407  -6.8407  -6.2966  -6.2966  -6.2965  -6.2965
    11.4426  11.4426  11.4428  11.4428  13.4854  13.4854  13.4855  13.4855
    14.9141  14.9141  14.9142  14.9142  16.4501  16.4501

          k = 0.2500 0.4330 0.0000 (  2111 PWs)   bands (ev):

   -30.0492 -30.0492 -29.9816 -29.9816 -11.0617 -11.0617 -10.9192 -10.9192
    -7.0447  -7.0447  -6.9512  -6.9512  -6.8011  -6.8011  -6.4017  -6.4017
    12.1607  12.1607  12.3693  12.3693  12.9709  12.9709  13.1476  13.1476
    14.5401  14.5401  15.4317  15.4317  15.8609  15.8609

          k = 0.2500 0.4330 0.1566 (  2104 PWs)   bands (ev):

   -30.0393 -30.0393 -29.9915 -29.9915 -11.0491 -11.0491 -10.9473 -10.9473
    -7.1570  -7.1570  -6.9442  -6.9442  -6.6899  -6.6899  -6.3683  -6.3683
    12.0963  12.0963  12.2189  12.2189  13.0665  13.0665  13.5891  13.5891
    14.6637  14.6637  14.8129  14.8129  15.7912  15.7912

          k = 0.2500 0.4330-0.3132 (  2120 PWs)   bands (ev):

   -30.0154 -30.0154 -30.0154 -30.0154 -11.0166 -11.0166 -10.9954 -10.9954
    -7.2191  -7.2191  -6.9670  -6.9670  -6.5859  -6.5859  -6.3483  -6.3483
    12.0010  12.0010  12.0986  12.0986  13.6537  13.6537  13.6900  13.6900
    14.4401  14.4401  14.4999  14.4999  16.2897  16.2905

          k = 0.2500-0.4330 0.0000 (  2111 PWs)   bands (ev):

   -30.0493 -30.0493 -29.9816 -29.9816 -11.0618 -11.0618 -10.9191 -10.9191
    -7.0448  -7.0448  -6.9512  -6.9512  -6.8012  -6.8012  -6.4015  -6.4015
    12.1601  12.1601  12.3691  12.3691  12.9711  12.9711  13.1473  13.1473
    14.5399  14.5399  15.4324  15.4324  15.8604  15.8604

          k = 0.2500-0.4330 0.1566 (  2104 PWs)   bands (ev):

   -30.0393 -30.0393 -29.9915 -29.9915 -11.0492 -11.0492 -10.9473 -10.9473
    -7.1570  -7.1570  -6.9442  -6.9442  -6.6900  -6.6900  -6.3683  -6.3683
    12.0962  12.0962  12.2189  12.2189  13.0666  13.0666  13.5883  13.5883
    14.6646  14.6646  14.8129  14.8129  15.7908  15.7908

          k = 0.2500-0.4330-0.3132 (  2120 PWs)   bands (ev):

   -30.0154 -30.0154 -30.0154 -30.0154 -11.0166 -11.0166 -10.9954 -10.9954
    -7.2191  -7.2191  -6.9669  -6.9669  -6.5861  -6.5861  -6.3483  -6.3483
    12.0010  12.0010  12.0987  12.0987  13.6544  13.6544  13.6906  13.6906
    14.4394  14.4394  14.4993  14.4993  16.2896  16.2902

          k = 0.2500-0.1443 0.0000 (  2118 PWs)   bands (ev):

   -30.1478 -30.1478 -29.9965 -29.9965 -11.0410 -11.0410 -10.6600 -10.6600
    -7.1502  -7.1502  -6.5533  -6.5533  -6.4891  -6.4891  -6.0624  -6.0624
    10.2536  10.2536  12.0863  12.0863  13.4737  13.4737  13.8413  13.8413
    15.0695  15.0695  15.7327  15.7328  15.9351  15.9352

          k = 0.2500-0.1443 0.1566 (  2100 PWs)   bands (ev):

   -30.1259 -30.1259 -30.0190 -30.0190 -10.9868 -10.9868 -10.7172 -10.7172
    -7.0596  -7.0596  -6.6113  -6.6113  -6.4684  -6.4684  -6.1256  -6.1256
    10.5719  10.5719  12.2140  12.2140  13.0651  13.0651  13.9681  13.9681
    14.6432  14.6432  15.7047  15.7048  15.9295  15.9295

          k = 0.2500-0.1443-0.3132 (  2086 PWs)   bands (ev):

   -30.0727 -30.0727 -30.0727 -30.0727 -10.8535 -10.8535 -10.8535 -10.8535
    -6.8407  -6.8407  -6.8407  -6.8407  -6.2966  -6.2966  -6.2966  -6.2966
    11.4428  11.4428  11.4429  11.4429  13.4851  13.4851  13.4852  13.4852
    14.9147  14.9147  14.9148  14.9148  16.4501  16.4502

          k =-0.5000-0.2887 0.0000 (  2124 PWs)   bands (ev):

   -30.0484 -30.0484 -29.9823 -29.9823 -11.0578 -11.0578 -10.9489 -10.9489
    -7.0820  -7.0820  -7.0523  -7.0523  -6.7305  -6.7305  -6.2512  -6.2512
    11.4168  11.4168  11.6626  11.6626  11.9895  11.9895  14.5712  14.5712
    14.9922  14.9922  15.3856  15.3856  16.2211  16.2211

          k =-0.5000-0.2887 0.1566 (  2098 PWs)   bands (ev):

   -30.0387 -30.0387 -29.9920 -29.9920 -11.0512 -11.0512 -10.9727 -10.9727
    -7.1199  -7.1199  -7.1057  -7.1057  -6.5856  -6.5856  -6.2633  -6.2633
    11.0018  11.0018  11.5554  11.5554  13.1127  13.1127  13.2762  13.2762
    15.4657  15.4657  15.7800  15.7800  16.5818  16.5818

          k =-0.5000-0.2887-0.3132 (  2100 PWs)   bands (ev):

   -30.0154 -30.0154 -30.0154 -30.0154 -11.0206 -11.0206 -11.0206 -11.0206
    -7.1464  -7.1464  -7.1464  -7.1464  -6.3702  -6.3702  -6.3702  -6.3702
    11.1743  11.1743  11.1744  11.1744  13.1368  13.1368  13.1369  13.1369
    16.3342  16.3342  16.3343  16.3343  17.0080  17.0080

          k =-0.5000 0.0000 0.0000 (  2111 PWs)   bands (ev):

   -30.0493 -30.0493 -29.9816 -29.9816 -11.0618 -11.0618 -10.9191 -10.9191
    -7.0447  -7.0447  -6.9512  -6.9512  -6.8012  -6.8012  -6.4015  -6.4015
    12.1602  12.1602  12.3691  12.3691  12.9711  12.9711  13.1474  13.1474
    14.5400  14.5400  15.4324  15.4324  15.8604  15.8605

          k =-0.5000 0.0000 0.1566 (  2104 PWs)   bands (ev):

   -30.0393 -30.0393 -29.9915 -29.9915 -11.0492 -11.0492 -10.9473 -10.9473
    -7.1570  -7.1570  -6.9442  -6.9442  -6.6900  -6.6900  -6.3683  -6.3683
    12.0962  12.0962  12.2189  12.2189  13.0667  13.0667  13.5883  13.5883
    14.6646  14.6646  14.8129  14.8129  15.7908  15.7908

          k =-0.5000 0.0000-0.3132 (  2120 PWs)   bands (ev):

   -30.0154 -30.0154 -30.0154 -30.0154 -11.0166 -11.0166 -10.9954 -10.9954
    -7.2191  -7.2191  -6.9668  -6.9668  -6.5861  -6.5861  -6.3483  -6.3483
    12.0010  12.0010  12.0988  12.0988  13.6544  13.6544  13.6907  13.6907
    14.4393  14.4393  14.4992  14.4992  16.2896  16.2915

          k =-0.5000-0.8660 0.0000 (  2124 PWs)   bands (ev):

   -30.0485 -30.0485 -29.9823 -29.9823 -11.0579 -11.0579 -10.9488 -10.9488
    -7.0822  -7.0822  -7.0521  -7.0521  -6.7308  -6.7308  -6.2509  -6.2509
    11.4166  11.4166  11.6619  11.6619  11.9883  11.9883  14.5718  14.5718
    14.9917  14.9917  15.3879  15.3879  16.2218  16.2218

          k =-0.5000-0.8660 0.1566 (  2098 PWs)   bands (ev):

   -30.0388 -30.0388 -29.9919 -29.9919 -11.0512 -11.0512 -10.9727 -10.9727
    -7.1198  -7.1198  -7.1056  -7.1056  -6.5859  -6.5859  -6.2632  -6.2632
    11.0015  11.0015  11.5555  11.5555  13.1121  13.1121  13.2765  13.2765
    15.4653  15.4653  15.7802  15.7802  16.5830  16.5830

          k =-0.5000-0.8660-0.3132 (  2100 PWs)   bands (ev):

   -30.0153 -30.0153 -30.0153 -30.0153 -11.0205 -11.0205 -11.0205 -11.0205
    -7.1464  -7.1464  -7.1464  -7.1464  -6.3704  -6.3704  -6.3704  -6.3704
    11.1747  11.1748  11.1748  11.1748  13.1366  13.1366  13.1367  13.1367
    16.3340  16.3341  16.3341  16.3341  17.0077  17.0077

          k = 0.0000-0.2887 0.1566 (  2100 PWs)   bands (ev):

   -30.1259 -30.1259 -30.0190 -30.0190 -10.9868 -10.9868 -10.7172 -10.7172
    -7.0596  -7.0596  -6.6113  -6.6113  -6.4684  -6.4684  -6.1256  -6.1256
    10.5719  10.5719  12.2144  12.2144  13.0656  13.0656  13.9682  13.9682
    14.6423  14.6424  15.7041  15.7042  15.9296  15.9297

          k =-0.2500-0.1443 0.1566 (  2100 PWs)   bands (ev):

   -30.1259 -30.1259 -30.0190 -30.0190 -10.9868 -10.9868 -10.7172 -10.7172
    -7.0596  -7.0596  -6.6113  -6.6113  -6.4683  -6.4683  -6.1255  -6.1255
    10.5718  10.5718  12.2143  12.2143  13.0655  13.0655  13.9682  13.9682
    14.6423  14.6423  15.7041  15.7042  15.9298  15.9298

          k =-0.2500-0.4330 0.1566 (  2104 PWs)   bands (ev):

   -30.0393 -30.0393 -29.9915 -29.9915 -11.0491 -11.0491 -10.9473 -10.9473
    -7.1570  -7.1570  -6.9442  -6.9442  -6.6899  -6.6899  -6.3683  -6.3683
    12.0963  12.0963  12.2189  12.2189  13.0665  13.0665  13.5891  13.5891
    14.6637  14.6637  14.8129  14.8129  15.7912  15.7912

          k =-0.2500 0.4330 0.1566 (  2104 PWs)   bands (ev):

   -30.0393 -30.0393 -29.9915 -29.9915 -11.0492 -11.0492 -10.9473 -10.9473
    -7.1570  -7.1570  -6.9442  -6.9442  -6.6900  -6.6900  -6.3683  -6.3683
    12.0962  12.0962  12.2189  12.2189  13.0666  13.0666  13.5883  13.5883
    14.6646  14.6646  14.8129  14.8129  15.7908  15.7908

          k =-0.2500 0.1443 0.1566 (  2100 PWs)   bands (ev):

   -30.1259 -30.1259 -30.0190 -30.0190 -10.9868 -10.9868 -10.7172 -10.7172
    -7.0596  -7.0596  -6.6113  -6.6113  -6.4684  -6.4684  -6.1256  -6.1256
    10.5719  10.5719  12.2140  12.2140  13.0652  13.0652  13.9681  13.9681
    14.6432  14.6432  15.7047  15.7047  15.9295  15.9295

          k = 0.5000-0.0000 0.1566 (  2104 PWs)   bands (ev):

   -30.0393 -30.0393 -29.9915 -29.9915 -11.0492 -11.0492 -10.9473 -10.9473
    -7.1570  -7.1570  -6.9442  -6.9442  -6.6900  -6.6900  -6.3683  -6.3683
    12.0962  12.0962  12.2189  12.2189  13.0667  13.0667  13.5883  13.5883
    14.6646  14.6646  14.8129  14.8129  15.7908  15.7908

     the Fermi energy is    13.4449 ev

!    total energy              =   -1119.19531207 Ry
     Harris-Foulkes estimate   =   -1119.19531198 Ry
     estimated scf accuracy    <       0.00000013 Ry

     total all-electron energy =    -45121.367018 Ry

     The total energy is the sum of the following terms:

     one-electron contribution =     -12.44434569 Ry
     hartree contribution      =      17.93480403 Ry
     xc contribution           =    -125.98139449 Ry
     ewald contribution        =    -124.66910090 Ry
     one-center paw contrib.   =    -874.03326166 Ry
     smearing contrib. (-TS)   =      -0.00201335 Ry

     convergence has been achieved in   4 iterations

     Writing output data file 2340.save
 
     init_run     :      1.44s CPU      2.92s WALL (       1 calls)
     electrons    :     11.21s CPU     16.00s WALL (       1 calls)

     Called by init_run:
     wfcinit      :      1.10s CPU      1.90s WALL (       1 calls)
     potinit      :      0.11s CPU      0.41s WALL (       1 calls)

     Called by electrons:
     c_bands      :      9.08s CPU     12.80s WALL (       5 calls)
     sum_band     :      1.47s CPU      2.02s WALL (       5 calls)
     v_of_rho     :      0.03s CPU      0.05s WALL (       5 calls)
     newd         :      0.22s CPU      0.34s WALL (       5 calls)
     PAW_pot      :      0.52s CPU      0.91s WALL (       5 calls)
     mix_rho      :      0.01s CPU      0.02s WALL (       5 calls)

     Called by c_bands:
     init_us_2    :      0.05s CPU      0.05s WALL (     396 calls)
     cegterg      :      8.25s CPU     11.76s WALL (     180 calls)

     Called by sum_band:
     sum_band:bec :      0.39s CPU      0.39s WALL (     180 calls)
     addusdens    :      0.11s CPU      0.15s WALL (       5 calls)

     Called by *egterg:
     h_psi        :      6.58s CPU      9.70s WALL (     614 calls)
     s_psi        :      0.29s CPU      0.38s WALL (     614 calls)
     g_psi        :      0.02s CPU      0.02s WALL (     398 calls)
     cdiaghg      :      1.24s CPU      1.63s WALL (     542 calls)

     Called by h_psi:
     h_psi:pot    :      6.54s CPU      9.66s WALL (     614 calls)
     h_psi:calbec :      0.29s CPU      0.49s WALL (     614 calls)
     vloc_psi     :      5.93s CPU      8.83s WALL (     614 calls)
     add_vuspsi   :      0.32s CPU      0.33s WALL (     614 calls)

     General routines
     calbec       :      0.37s CPU      0.70s WALL (     794 calls)
     fft          :      0.03s CPU      0.19s WALL (      97 calls)
     fftw         :      6.12s CPU      9.34s WALL (   71684 calls)
     davcio       :      0.00s CPU      0.01s WALL (      36 calls)
 
     Parallel routines
     fft_scatter  :      3.58s CPU      6.68s WALL (   71781 calls)
 
     PWSCF        :  0m14.01s CPU     1m13.94s WALL

 
   This run was terminated on:  11:38:11  30Nov2022            

=------------------------------------------------------------------------------=
   JOB DONE.
=------------------------------------------------------------------------------=
Removing 2340 from /home/shaharpit/tmp
