
     Program PWSCF v.6.1 (svn rev. 13369) starts on  3Jul2022 at 12:25:51 

     This program is part of the open-source Quantum ESPRESSO suite
     for quantum simulation of materials; please cite
         "P. Giannozzi et al., J. Phys.:Condens. Matter 21 395502 (2009);
          URL http://www.quantum-espresso.org", 
     in publications or presentations arising from this work. More details at
     http://www.quantum-espresso.org/quote

     Parallel version (MPI), running on     1 processors


     Program PWSCF v.6.1 (svn rev. 13369) starts on  3Jul2022 at 12:25:51 

     This program is part of the open-source Quantum ESPRESSO suite
     for quantum simulation of materials; please cite
         "P. Giannozzi et al., J. Phys.:Condens. Matter 21 395502 (2009);
          URL http://www.quantum-espresso.org", 
     in publications or presentations arising from this work. More details at
     http://www.quantum-espresso.org/quote

     Parallel version (MPI), running on     1 processors

     Program PWSCF v.6.1 (svn rev. 13369) starts on  3Jul2022 at 12:25:51 

     This program is part of the open-source Quantum ESPRESSO suite
     for quantum simulation of materials; please cite
         "P. Giannozzi et al., J. Phys.:Condens. Matter 21 395502 (2009);
          URL http://www.quantum-espresso.org", 
     in publications or presentations arising from this work. More details at
     http://www.quantum-espresso.org/quote

     Parallel version (MPI), running on     1 processors

     Program PWSCF v.6.1 (svn rev. 13369) starts on  3Jul2022 at 12:25:51 

     This program is part of the open-source Quantum ESPRESSO suite
     for quantum simulation of materials; please cite
         "P. Giannozzi et al., J. Phys.:Condens. Matter 21 395502 (2009);
          URL http://www.quantum-espresso.org", 
     in publications or presentations arising from this work. More details at
     http://www.quantum-espresso.org/quote

     Parallel version (MPI), running on     1 processors

     Program PWSCF v.6.1 (svn rev. 13369) starts on  3Jul2022 at 12:25:51 

     This program is part of the open-source Quantum ESPRESSO suite
     for quantum simulation of materials; please cite
         "P. Giannozzi et al., J. Phys.:Condens. Matter 21 395502 (2009);
          URL http://www.quantum-espresso.org", 
     in publications or presentations arising from this work. More details at
     http://www.quantum-espresso.org/quote

     Parallel version (MPI), running on     1 processors

     Program PWSCF v.6.1 (svn rev. 13369) starts on  3Jul2022 at 12:25:51 

     This program is part of the open-source Quantum ESPRESSO suite
     for quantum simulation of materials; please cite
         "P. Giannozzi et al., J. Phys.:Condens. Matter 21 395502 (2009);
          URL http://www.quantum-espresso.org", 
     in publications or presentations arising from this work. More details at
     http://www.quantum-espresso.org/quote

     Parallel version (MPI), running on     1 processors

     Program PWSCF v.6.1 (svn rev. 13369) starts on  3Jul2022 at 12:25:51 

     This program is part of the open-source Quantum ESPRESSO suite
     for quantum simulation of materials; please cite
         "P. Giannozzi et al., J. Phys.:Condens. Matter 21 395502 (2009);
          URL http://www.quantum-espresso.org", 
     in publications or presentations arising from this work. More details at
     http://www.quantum-espresso.org/quote

     Parallel version (MPI), running on     1 processors

     Program PWSCF v.6.1 (svn rev. 13369) starts on  3Jul2022 at 12:25:51 

     This program is part of the open-source Quantum ESPRESSO suite
     for quantum simulation of materials; please cite
         "P. Giannozzi et al., J. Phys.:Condens. Matter 21 395502 (2009);
          URL http://www.quantum-espresso.org", 
     in publications or presentations arising from this work. More details at
     http://www.quantum-espresso.org/quote

     Parallel version (MPI), running on     1 processors
     Program PWSCF v.6.1 (svn rev. 13369) starts on  3Jul2022 at 12:25:51 

     This program is part of the open-source Quantum ESPRESSO suite
     for quantum simulation of materials; please cite
         "P. Giannozzi et al., J. Phys.:Condens. Matter 21 395502 (2009);
          URL http://www.quantum-espresso.org", 
     in publications or presentations arising from this work. More details at
     http://www.quantum-espresso.org/quote

     Parallel version (MPI), running on     1 processors

     Program PWSCF v.6.1 (svn rev. 13369) starts on  3Jul2022 at 12:25:51 

     This program is part of the open-source Quantum ESPRESSO suite
     for quantum simulation of materials; please cite
         "P. Giannozzi et al., J. Phys.:Condens. Matter 21 395502 (2009);
          URL http://www.quantum-espresso.org", 
     in publications or presentations arising from this work. More details at
     http://www.quantum-espresso.org/quote

     Parallel version (MPI), running on     1 processors

     Program PWSCF v.6.1 (svn rev. 13369) starts on  3Jul2022 at 12:25:51 

     This program is part of the open-source Quantum ESPRESSO suite
     for quantum simulation of materials; please cite
         "P. Giannozzi et al., J. Phys.:Condens. Matter 21 395502 (2009);
          URL http://www.quantum-espresso.org", 
     in publications or presentations arising from this work. More details at
     http://www.quantum-espresso.org/quote

     Parallel version (MPI), running on     1 processors

     Program PWSCF v.6.1 (svn rev. 13369) starts on  3Jul2022 at 12:25:51 

     This program is part of the open-source Quantum ESPRESSO suite
     for quantum simulation of materials; please cite
         "P. Giannozzi et al., J. Phys.:Condens. Matter 21 395502 (2009);
          URL http://www.quantum-espresso.org", 
     in publications or presentations arising from this work. More details at
     http://www.quantum-espresso.org/quote

     Parallel version (MPI), running on     1 processors

     Program PWSCF v.6.1 (svn rev. 13369) starts on  3Jul2022 at 12:25:51 

     This program is part of the open-source Quantum ESPRESSO suite
     for quantum simulation of materials; please cite
         "P. Giannozzi et al., J. Phys.:Condens. Matter 21 395502 (2009);
          URL http://www.quantum-espresso.org", 
     in publications or presentations arising from this work. More details at
     http://www.quantum-espresso.org/quote

     Parallel version (MPI), running on     1 processors

     Program PWSCF v.6.1 (svn rev. 13369) starts on  3Jul2022 at 12:25:51 

     This program is part of the open-source Quantum ESPRESSO suite
     for quantum simulation of materials; please cite
         "P. Giannozzi et al., J. Phys.:Condens. Matter 21 395502 (2009);
          URL http://www.quantum-espresso.org", 
     in publications or presentations arising from this work. More details at
     http://www.quantum-espresso.org/quote

     Parallel version (MPI), running on     1 processors

     Program PWSCF v.6.1 (svn rev. 13369) starts on  3Jul2022 at 12:25:51 

     This program is part of the open-source Quantum ESPRESSO suite
     for quantum simulation of materials; please cite
         "P. Giannozzi et al., J. Phys.:Condens. Matter 21 395502 (2009);
          URL http://www.quantum-espresso.org", 
     in publications or presentations arising from this work. More details at
     http://www.quantum-espresso.org/quote

     Parallel version (MPI), running on     1 processors

     Program PWSCF v.6.1 (svn rev. 13369) starts on  3Jul2022 at 12:25:51 

     This program is part of the open-source Quantum ESPRESSO suite
     for quantum simulation of materials; please cite
         "P. Giannozzi et al., J. Phys.:Condens. Matter 21 395502 (2009);
          URL http://www.quantum-espresso.org", 
     in publications or presentations arising from this work. More details at
     http://www.quantum-espresso.org/quote

     Parallel version (MPI), running on     1 processors
     Reading input from ./Gd_0.9.in
     Reading input from ./Gd_0.9.in
     Reading input from ./Gd_0.9.in
     Reading input from ./Gd_0.9.in
     Reading input from ./Gd_0.9.in
     Reading input from ./Gd_0.9.in
     Reading input from ./Gd_0.9.in
     Reading input from ./Gd_0.9.in
     Reading input from ./Gd_0.9.in
     Reading input from ./Gd_0.9.in
     Reading input from ./Gd_0.9.in
     Reading input from ./Gd_0.9.in
     Reading input from ./Gd_0.9.in
     Reading input from ./Gd_0.9.in
     Reading input from ./Gd_0.9.in
     Reading input from ./Gd_0.9.in
Warning: card &CELL ignored
Warning: card / ignored
Warning: card H 1.00794 H.PBE-RRKJUS_PSL.1.0.0.UPF ignored
Warning: card &CELL ignored
Warning: card / ignored
Warning: card H 1.00794 H.PBE-RRKJUS_PSL.1.0.0.UPF ignored
Warning: card &CELL ignored
Warning: card / ignored
Warning: card &CELL ignored
Warning: card / ignored
Warning: card H 1.00794 H.PBE-RRKJUS_PSL.1.0.0.UPF ignored
Warning: card &CELL ignored
Warning: card / ignored
Warning: card H 1.00794 H.PBE-RRKJUS_PSL.1.0.0.UPF ignored
Warning: card H 1.00794 H.PBE-RRKJUS_PSL.1.0.0.UPF ignored
Warning: card &CELL ignored
Warning: card / ignored
Warning: card H 1.00794 H.PBE-RRKJUS_PSL.1.0.0.UPF ignored
Warning: card &CELL ignored
Warning: card / ignored
Warning: card H 1.00794 H.PBE-RRKJUS_PSL.1.0.0.UPF ignored
Warning: card &CELL ignored
Warning: card / ignored
Warning: card &CELL ignored
Warning: card / ignored
Warning: card &CELL ignored
Warning: card / ignored
Warning: card H 1.00794 H.PBE-RRKJUS_PSL.1.0.0.UPF ignored
Warning: card H 1.00794 H.PBE-RRKJUS_PSL.1.0.0.UPF ignored
Warning: card H 1.00794 H.PBE-RRKJUS_PSL.1.0.0.UPF ignored
Warning: card &CELL ignored
Warning: card / ignored
Warning: card H 1.00794 H.PBE-RRKJUS_PSL.1.0.0.UPF ignored
Warning: card &CELL ignored
Warning: card / ignored
Warning: card H 1.00794 H.PBE-RRKJUS_PSL.1.0.0.UPF ignored
Warning: card &CELL ignored
Warning: card / ignored
Warning: card H 1.00794 H.PBE-RRKJUS_PSL.1.0.0.UPF ignored
Warning: card &CELL ignored
Warning: card / ignored
Warning: card &CELL ignored
Warning: card / ignored
Warning: card H 1.00794 H.PBE-RRKJUS_PSL.1.0.0.UPF ignored
Warning: card H 1.00794 H.PBE-RRKJUS_PSL.1.0.0.UPF ignored
Warning: card &CELL ignored
Warning: card / ignored
Warning: card H 1.00794 H.PBE-RRKJUS_PSL.1.0.0.UPF ignored

     Current dimensions of program PWSCF are:
     Max number of different atomic species (ntypx) = 10
     Max number of k-points (npk) =  40000

     Current dimensions of program PWSCF are:
     Max number of different atomic species (ntypx) = 10
     Max number of k-points (npk) =  40000
     Max angular momentum in pseudopotentials (lmaxx) =  3

     Current dimensions of program PWSCF are:
     Max number of different atomic species (ntypx) = 10

     Current dimensions of program PWSCF are:
     Max number of different atomic species (ntypx) = 10
     Max number of k-points (npk) =  40000
     Max angular momentum in pseudopotentials (lmaxx) =  3

     Current dimensions of program PWSCF are:

     Current dimensions of program PWSCF are:
     Max number of different atomic species (ntypx) = 10
     Max number of k-points (npk) =  40000
     Max angular momentum in pseudopotentials (lmaxx) =  3

     Current dimensions of program PWSCF are:
     Max number of different atomic species (ntypx) = 10
     Max number of k-points (npk) =  40000
     Max angular momentum in pseudopotentials (lmaxx) =  3

     Current dimensions of program PWSCF are:
     Max number of different atomic species (ntypx) = 10
     Max number of k-points (npk) =  40000
     Max angular momentum in pseudopotentials (lmaxx) =  3

     Current dimensions of program PWSCF are:
     Max number of different atomic species (ntypx) = 10
     Max number of k-points (npk) =  40000
     Max angular momentum in pseudopotentials (lmaxx) =  3

     Current dimensions of program PWSCF are:
     Max number of different atomic species (ntypx) = 10
     Max number of k-points (npk) =  40000
     Max angular momentum in pseudopotentials (lmaxx) =  3




     Current dimensions of program PWSCF are:
     Current dimensions of program PWSCF are:
     Max number of different atomic species (ntypx) = 10
     Max angular momentum in pseudopotentials (lmaxx) =  3
     Max number of k-points (npk) =  40000


     Current dimensions of program PWSCF are:
     Max number of different atomic species (ntypx) = 10
     Max number of k-points (npk) =  40000
     Max number of different atomic species (ntypx) = 10
     Max number of k-points (npk) =  40000
     Max angular momentum in pseudopotentials (lmaxx) =  3
     Max number of different atomic species (ntypx) = 10
     Max number of k-points (npk) =  40000
     Max angular momentum in pseudopotentials (lmaxx) =  3
     Current dimensions of program PWSCF are:
     Max number of different atomic species (ntypx) = 10
     Max number of k-points (npk) =  40000
     Max angular momentum in pseudopotentials (lmaxx) =  3
     Current dimensions of program PWSCF are:
     Max number of different atomic species (ntypx) = 10
     Max number of k-points (npk) =  40000
     Max angular momentum in pseudopotentials (lmaxx) =  3
     Current dimensions of program PWSCF are:
     Max number of different atomic species (ntypx) = 10
     Max number of k-points (npk) =  40000
     Max angular momentum in pseudopotentials (lmaxx) =  3
     Max number of k-points (npk) =  40000
     Max angular momentum in pseudopotentials (lmaxx) =  3
     Max angular momentum in pseudopotentials (lmaxx) =  3
     Max angular momentum in pseudopotentials (lmaxx) =  3
               file Gd.GGA-PBE-paw-v1.0.UPF: wavefunction(s)  Xn Xn Xn Xn Xn Xn renormalized

     Subspace diagonalization in iterative solution of the eigenvalue problem:
     a serial algorithm will be used

 
     G-vector sticks info
     --------------------
     sticks:   dense  smooth     PW     G-vecs:    dense   smooth      PW
     Sum         595     595    169                18845    18845    3001
 


     bravais-lattice index     =            0
     lattice parameter (alat)  =       6.5936  a.u.
     unit-cell volume          =     396.3685 (a.u.)^3
     number of atoms/cell      =            2
     number of atomic types    =            1
     number of electrons       =        36.00
     number of Kohn-Sham states=           22
     kinetic-energy cutoff     =      50.0000  Ry
     charge density cutoff     =     200.0000  Ry
     convergence threshold     =      1.0E-06
     mixing beta               =       0.7000
     number of iterations used =            8  plain     mixing
     Exchange-correlation      = SLA PW PBX PBC ( 1  4  3  4 0 0)
     nstep                     =          150


     celldm(1)=   6.593632  celldm(2)=   0.000000  celldm(3)=   0.000000
     celldm(4)=   0.000000  celldm(5)=   0.000000  celldm(6)=   0.000000

     crystal axes: (cart. coord. in units of alat)
               a(1) = (   1.000000   0.000000   0.000000 )  
               a(2) = (  -0.500000   0.866015   0.000000 )  
               a(3) = (   0.000000   0.000000   1.596612 )  

     reciprocal axes: (cart. coord. in units 2 pi/alat)
               b(1) = (  1.000000  0.577357  0.000000 )  
               b(2) = (  0.000000  1.154714  0.000000 )  
               b(3) = (  0.000000  0.000000  0.626326 )  


     PseudoPot. # 1 for Gd read from file:
     /home/shaharpit/AcHProject/meam_fit/dft/qe_potentials/Gd.GGA-PBE-paw-v1.0.UPF
     MD5 check sum: 3e8e0d208da550914ae52eaf991d13de
     Pseudo is Projector augmented-wave + core cor, Zval = 18.0
     Generated using ATOMPAW code
     Shape of augmentation charge: BESSEL
     Using radial grid of 1110 points,  8 beta functions with: 
                l(1) =   0
                l(2) =   0
                l(3) =   1
                l(4) =   1
                l(5) =   2
                l(6) =   2
                l(7) =   3
                l(8) =   3
     Q(r) pseudized with 0 coefficients 


     atomic species   valence    mass     pseudopotential
        Gd            18.00   157.25000     Gd( 1.00)

      4 Sym. Ops., with inversion, found ( 2 have fractional translation)



   Cartesian axes

     site n.     atom                  positions (alat units)
         1           Gd  tau(   1) = (   0.5000500   0.2886428   1.1974593  )
         2           Gd  tau(   2) = (  -0.0000500   0.5773723   0.3991531  )

     number of k points=    30  gaussian smearing, width (Ry)=  0.0100
                       cart. coord. in units 2pi/alat
        k(    1) = (   0.0000000   0.0000000   0.0000000), wk =   0.0312500
        k(    2) = (   0.0000000   0.0000000   0.1565815), wk =   0.0625000
        k(    3) = (   0.0000000   0.0000000  -0.3131630), wk =   0.0312500
        k(    4) = (   0.0000000   0.2886786   0.0000000), wk =   0.0625000
        k(    5) = (   0.0000000   0.2886786   0.1565815), wk =   0.1250000
        k(    6) = (   0.0000000   0.2886786  -0.3131630), wk =   0.0625000
        k(    7) = (   0.0000000  -0.5773571   0.0000000), wk =   0.0312500
        k(    8) = (   0.0000000  -0.5773571   0.1565815), wk =   0.0625000
        k(    9) = (   0.0000000  -0.5773571  -0.3131630), wk =   0.0312500
        k(   10) = (   0.2500000   0.1443393   0.0000000), wk =   0.0625000
        k(   11) = (   0.2500000   0.1443393   0.1565815), wk =   0.1250000
        k(   12) = (   0.2500000   0.1443393  -0.3131630), wk =   0.0625000
        k(   13) = (   0.2500000   0.4330178   0.0000000), wk =   0.0625000
        k(   14) = (   0.2500000   0.4330178   0.1565815), wk =   0.1250000
        k(   15) = (   0.2500000   0.4330178  -0.3131630), wk =   0.0625000
        k(   16) = (  -0.5000000  -0.2886786   0.0000000), wk =   0.0312500
        k(   17) = (  -0.5000000  -0.2886786   0.1565815), wk =   0.0625000
        k(   18) = (  -0.5000000  -0.2886786  -0.3131630), wk =   0.0312500
        k(   19) = (  -0.5000000   0.0000000   0.0000000), wk =   0.0625000
        k(   20) = (  -0.5000000   0.0000000   0.1565815), wk =   0.1250000
        k(   21) = (  -0.5000000   0.0000000  -0.3131630), wk =   0.0625000
        k(   22) = (  -0.2500000   0.1443393   0.0000000), wk =   0.0625000
        k(   23) = (  -0.2500000   0.1443393  -0.1565815), wk =   0.1250000
        k(   24) = (  -0.2500000   0.1443393   0.3131630), wk =   0.0625000
        k(   25) = (  -0.2500000   0.4330178   0.0000000), wk =   0.0625000
        k(   26) = (  -0.2500000   0.4330178  -0.1565815), wk =   0.1250000
        k(   27) = (  -0.2500000   0.4330178   0.3131630), wk =   0.0625000
        k(   28) = (   0.5000000  -0.2886786   0.0000000), wk =   0.0312500
        k(   29) = (   0.5000000  -0.2886786  -0.1565815), wk =   0.0625000
        k(   30) = (   0.5000000  -0.2886786   0.3131630), wk =   0.0312500

     Dense  grid:    18845 G-vectors     FFT dimensions: (  30,  30,  48)

     Estimated max dynamical RAM per process >      44.06MB
               file Gd.GGA-PBE-paw-v1.0.UPF: wavefunction(s)  Xn Xn Xn Xn Xn Xn renormalized

     Subspace diagonalization in iterative solution of the eigenvalue problem:
     a serial algorithm will be used

 
     G-vector sticks info
     --------------------
     sticks:   dense  smooth     PW     G-vecs:    dense   smooth      PW
     Sum         595     595    169                18845    18845    3001
 


     bravais-lattice index     =            0
     lattice parameter (alat)  =       6.5936  a.u.
     unit-cell volume          =     396.3685 (a.u.)^3
     number of atoms/cell      =            2
     number of atomic types    =            1
     number of electrons       =        36.00
     number of Kohn-Sham states=           22
     kinetic-energy cutoff     =      50.0000  Ry
     charge density cutoff     =     200.0000  Ry
     convergence threshold     =      1.0E-06
     mixing beta               =       0.7000
     number of iterations used =            8  plain     mixing
     Exchange-correlation      = SLA PW PBX PBC ( 1  4  3  4 0 0)
     nstep                     =          150


     celldm(1)=   6.593632  celldm(2)=   0.000000  celldm(3)=   0.000000
     celldm(4)=   0.000000  celldm(5)=   0.000000  celldm(6)=   0.000000

     crystal axes: (cart. coord. in units of alat)
               a(1) = (   1.000000   0.000000   0.000000 )  
               a(2) = (  -0.500000   0.866015   0.000000 )  
               a(3) = (   0.000000   0.000000   1.596612 )  

     reciprocal axes: (cart. coord. in units 2 pi/alat)
               b(1) = (  1.000000  0.577357  0.000000 )  
               b(2) = (  0.000000  1.154714  0.000000 )  
               b(3) = (  0.000000  0.000000  0.626326 )  


     PseudoPot. # 1 for Gd read from file:
     /home/shaharpit/AcHProject/meam_fit/dft/qe_potentials/Gd.GGA-PBE-paw-v1.0.UPF
     MD5 check sum: 3e8e0d208da550914ae52eaf991d13de
     Pseudo is Projector augmented-wave + core cor, Zval = 18.0
     Generated using ATOMPAW code
     Shape of augmentation charge: BESSEL
     Using radial grid of 1110 points,  8 beta functions with: 
                l(1) =   0
                l(2) =   0
                l(3) =   1
                l(4) =   1
                l(5) =   2
                l(6) =   2
                l(7) =   3
                l(8) =   3
     Q(r) pseudized with 0 coefficients 


     atomic species   valence    mass     pseudopotential
        Gd            18.00   157.25000     Gd( 1.00)

      4 Sym. Ops., with inversion, found ( 2 have fractional translation)



   Cartesian axes

     site n.     atom                  positions (alat units)
         1           Gd  tau(   1) = (   0.5000500   0.2886428   1.1974593  )
         2           Gd  tau(   2) = (  -0.0000500   0.5773723   0.3991531  )

     number of k points=    30  gaussian smearing, width (Ry)=  0.0100
                       cart. coord. in units 2pi/alat
        k(    1) = (   0.0000000   0.0000000   0.0000000), wk =   0.0312500
        k(    2) = (   0.0000000   0.0000000   0.1565815), wk =   0.0625000
        k(    3) = (   0.0000000   0.0000000  -0.3131630), wk =   0.0312500
        k(    4) = (   0.0000000   0.2886786   0.0000000), wk =   0.0625000
        k(    5) = (   0.0000000   0.2886786   0.1565815), wk =   0.1250000
        k(    6) = (   0.0000000   0.2886786  -0.3131630), wk =   0.0625000
        k(    7) = (   0.0000000  -0.5773571   0.0000000), wk =   0.0312500
        k(    8) = (   0.0000000  -0.5773571   0.1565815), wk =   0.0625000
        k(    9) = (   0.0000000  -0.5773571  -0.3131630), wk =   0.0312500
        k(   10) = (   0.2500000   0.1443393   0.0000000), wk =   0.0625000
        k(   11) = (   0.2500000   0.1443393   0.1565815), wk =   0.1250000
        k(   12) = (   0.2500000   0.1443393  -0.3131630), wk =   0.0625000
        k(   13) = (   0.2500000   0.4330178   0.0000000), wk =   0.0625000
        k(   14) = (   0.2500000   0.4330178   0.1565815), wk =   0.1250000
        k(   15) = (   0.2500000   0.4330178  -0.3131630), wk =   0.0625000
        k(   16) = (  -0.5000000  -0.2886786   0.0000000), wk =   0.0312500
        k(   17) = (  -0.5000000  -0.2886786   0.1565815), wk =   0.0625000
        k(   18) = (  -0.5000000  -0.2886786  -0.3131630), wk =   0.0312500
        k(   19) = (  -0.5000000   0.0000000   0.0000000), wk =   0.0625000
        k(   20) = (  -0.5000000   0.0000000   0.1565815), wk =   0.1250000
        k(   21) = (  -0.5000000   0.0000000  -0.3131630), wk =   0.0625000
        k(   22) = (  -0.2500000   0.1443393   0.0000000), wk =   0.0625000
        k(   23) = (  -0.2500000   0.1443393  -0.1565815), wk =   0.1250000
        k(   24) = (  -0.2500000   0.1443393   0.3131630), wk =   0.0625000
        k(   25) = (  -0.2500000   0.4330178   0.0000000), wk =   0.0625000
        k(   26) = (  -0.2500000   0.4330178  -0.1565815), wk =   0.1250000
        k(   27) = (  -0.2500000   0.4330178   0.3131630), wk =   0.0625000
        k(   28) = (   0.5000000  -0.2886786   0.0000000), wk =   0.0312500
        k(   29) = (   0.5000000  -0.2886786  -0.1565815), wk =   0.0625000
        k(   30) = (   0.5000000  -0.2886786   0.3131630), wk =   0.0312500

     Dense  grid:    18845 G-vectors     FFT dimensions: (  30,  30,  48)

     Estimated max dynamical RAM per process >      44.06MB
               file Gd.GGA-PBE-paw-v1.0.UPF: wavefunction(s)  Xn Xn Xn Xn Xn Xn renormalized

     Subspace diagonalization in iterative solution of the eigenvalue problem:
     a serial algorithm will be used

 
     G-vector sticks info
     --------------------
     sticks:   dense  smooth     PW     G-vecs:    dense   smooth      PW
     Sum         595     595    169                18845    18845    3001
 


     bravais-lattice index     =            0
     lattice parameter (alat)  =       6.5936  a.u.
     unit-cell volume          =     396.3685 (a.u.)^3
     number of atoms/cell      =            2
     number of atomic types    =            1
     number of electrons       =        36.00
     number of Kohn-Sham states=           22
     kinetic-energy cutoff     =      50.0000  Ry
     charge density cutoff     =     200.0000  Ry
     convergence threshold     =      1.0E-06
     mixing beta               =       0.7000
     number of iterations used =            8  plain     mixing
     Exchange-correlation      = SLA PW PBX PBC ( 1  4  3  4 0 0)
     nstep                     =          150


     celldm(1)=   6.593632  celldm(2)=   0.000000  celldm(3)=   0.000000
     celldm(4)=   0.000000  celldm(5)=   0.000000  celldm(6)=   0.000000

     crystal axes: (cart. coord. in units of alat)
               a(1) = (   1.000000   0.000000   0.000000 )  
               a(2) = (  -0.500000   0.866015   0.000000 )  
               a(3) = (   0.000000   0.000000   1.596612 )  

     reciprocal axes: (cart. coord. in units 2 pi/alat)
               b(1) = (  1.000000  0.577357  0.000000 )  
               b(2) = (  0.000000  1.154714  0.000000 )  
               b(3) = (  0.000000  0.000000  0.626326 )  


     PseudoPot. # 1 for Gd read from file:
     /home/shaharpit/AcHProject/meam_fit/dft/qe_potentials/Gd.GGA-PBE-paw-v1.0.UPF
     MD5 check sum: 3e8e0d208da550914ae52eaf991d13de
     Pseudo is Projector augmented-wave + core cor, Zval = 18.0
     Generated using ATOMPAW code
     Shape of augmentation charge: BESSEL
     Using radial grid of 1110 points,  8 beta functions with: 
                l(1) =   0
                l(2) =   0
                l(3) =   1
                l(4) =   1
                l(5) =   2
                l(6) =   2
                l(7) =   3
                l(8) =   3
     Q(r) pseudized with 0 coefficients 


     atomic species   valence    mass     pseudopotential
        Gd            18.00   157.25000     Gd( 1.00)

      4 Sym. Ops., with inversion, found ( 2 have fractional translation)



   Cartesian axes

     site n.     atom                  positions (alat units)
         1           Gd  tau(   1) = (   0.5000500   0.2886428   1.1974593  )
         2           Gd  tau(   2) = (  -0.0000500   0.5773723   0.3991531  )

     number of k points=    30  gaussian smearing, width (Ry)=  0.0100
                       cart. coord. in units 2pi/alat
        k(    1) = (   0.0000000   0.0000000   0.0000000), wk =   0.0312500
        k(    2) = (   0.0000000   0.0000000   0.1565815), wk =   0.0625000
        k(    3) = (   0.0000000   0.0000000  -0.3131630), wk =   0.0312500
        k(    4) = (   0.0000000   0.2886786   0.0000000), wk =   0.0625000
        k(    5) = (   0.0000000   0.2886786   0.1565815), wk =   0.1250000
        k(    6) = (   0.0000000   0.2886786  -0.3131630), wk =   0.0625000
        k(    7) = (   0.0000000  -0.5773571   0.0000000), wk =   0.0312500
        k(    8) = (   0.0000000  -0.5773571   0.1565815), wk =   0.0625000
        k(    9) = (   0.0000000  -0.5773571  -0.3131630), wk =   0.0312500
        k(   10) = (   0.2500000   0.1443393   0.0000000), wk =   0.0625000
        k(   11) = (   0.2500000   0.1443393   0.1565815), wk =   0.1250000
        k(   12) = (   0.2500000   0.1443393  -0.3131630), wk =   0.0625000
        k(   13) = (   0.2500000   0.4330178   0.0000000), wk =   0.0625000
        k(   14) = (   0.2500000   0.4330178   0.1565815), wk =   0.1250000
        k(   15) = (   0.2500000   0.4330178  -0.3131630), wk =   0.0625000
        k(   16) = (  -0.5000000  -0.2886786   0.0000000), wk =   0.0312500
        k(   17) = (  -0.5000000  -0.2886786   0.1565815), wk =   0.0625000
        k(   18) = (  -0.5000000  -0.2886786  -0.3131630), wk =   0.0312500
        k(   19) = (  -0.5000000   0.0000000   0.0000000), wk =   0.0625000
        k(   20) = (  -0.5000000   0.0000000   0.1565815), wk =   0.1250000
        k(   21) = (  -0.5000000   0.0000000  -0.3131630), wk =   0.0625000
        k(   22) = (  -0.2500000   0.1443393   0.0000000), wk =   0.0625000
        k(   23) = (  -0.2500000   0.1443393  -0.1565815), wk =   0.1250000
        k(   24) = (  -0.2500000   0.1443393   0.3131630), wk =   0.0625000
        k(   25) = (  -0.2500000   0.4330178   0.0000000), wk =   0.0625000
        k(   26) = (  -0.2500000   0.4330178  -0.1565815), wk =   0.1250000
        k(   27) = (  -0.2500000   0.4330178   0.3131630), wk =   0.0625000
        k(   28) = (   0.5000000  -0.2886786   0.0000000), wk =   0.0312500
        k(   29) = (   0.5000000  -0.2886786  -0.1565815), wk =   0.0625000
        k(   30) = (   0.5000000  -0.2886786   0.3131630), wk =   0.0312500

     Dense  grid:    18845 G-vectors     FFT dimensions: (  30,  30,  48)

     Estimated max dynamical RAM per process >      44.06MB
               file Gd.GGA-PBE-paw-v1.0.UPF: wavefunction(s)  Xn Xn Xn Xn Xn Xn renormalized

     Subspace diagonalization in iterative solution of the eigenvalue problem:
     a serial algorithm will be used

 
     G-vector sticks info
     --------------------
     sticks:   dense  smooth     PW     G-vecs:    dense   smooth      PW
     Sum         595     595    169                18845    18845    3001
 


     bravais-lattice index     =            0
     lattice parameter (alat)  =       6.5936  a.u.
     unit-cell volume          =     396.3685 (a.u.)^3
     number of atoms/cell      =            2
     number of atomic types    =            1
     number of electrons       =        36.00
     number of Kohn-Sham states=           22
     kinetic-energy cutoff     =      50.0000  Ry
     charge density cutoff     =     200.0000  Ry
     convergence threshold     =      1.0E-06
     mixing beta               =       0.7000
     number of iterations used =            8  plain     mixing
     Exchange-correlation      = SLA PW PBX PBC ( 1  4  3  4 0 0)
     nstep                     =          150


     celldm(1)=   6.593632  celldm(2)=   0.000000  celldm(3)=   0.000000
     celldm(4)=   0.000000  celldm(5)=   0.000000  celldm(6)=   0.000000

     crystal axes: (cart. coord. in units of alat)
               a(1) = (   1.000000   0.000000   0.000000 )  
               a(2) = (  -0.500000   0.866015   0.000000 )  
               a(3) = (   0.000000   0.000000   1.596612 )  

     reciprocal axes: (cart. coord. in units 2 pi/alat)
               b(1) = (  1.000000  0.577357  0.000000 )  
               b(2) = (  0.000000  1.154714  0.000000 )  
               b(3) = (  0.000000  0.000000  0.626326 )  


     PseudoPot. # 1 for Gd read from file:
     /home/shaharpit/AcHProject/meam_fit/dft/qe_potentials/Gd.GGA-PBE-paw-v1.0.UPF
     MD5 check sum: 3e8e0d208da550914ae52eaf991d13de
     Pseudo is Projector augmented-wave + core cor, Zval = 18.0
     Generated using ATOMPAW code
     Shape of augmentation charge: BESSEL
     Using radial grid of 1110 points,  8 beta functions with: 
                l(1) =   0
                l(2) =   0
                l(3) =   1
                l(4) =   1
                l(5) =   2
                l(6) =   2
                l(7) =   3
                l(8) =   3
     Q(r) pseudized with 0 coefficients 


     atomic species   valence    mass     pseudopotential
        Gd            18.00   157.25000     Gd( 1.00)

      4 Sym. Ops., with inversion, found ( 2 have fractional translation)



   Cartesian axes

     site n.     atom                  positions (alat units)
         1           Gd  tau(   1) = (   0.5000500   0.2886428   1.1974593  )
         2           Gd  tau(   2) = (  -0.0000500   0.5773723   0.3991531  )

     number of k points=    30  gaussian smearing, width (Ry)=  0.0100
                       cart. coord. in units 2pi/alat
        k(    1) = (   0.0000000   0.0000000   0.0000000), wk =   0.0312500
        k(    2) = (   0.0000000   0.0000000   0.1565815), wk =   0.0625000
        k(    3) = (   0.0000000   0.0000000  -0.3131630), wk =   0.0312500
        k(    4) = (   0.0000000   0.2886786   0.0000000), wk =   0.0625000
        k(    5) = (   0.0000000   0.2886786   0.1565815), wk =   0.1250000
        k(    6) = (   0.0000000   0.2886786  -0.3131630), wk =   0.0625000
        k(    7) = (   0.0000000  -0.5773571   0.0000000), wk =   0.0312500
        k(    8) = (   0.0000000  -0.5773571   0.1565815), wk =   0.0625000
        k(    9) = (   0.0000000  -0.5773571  -0.3131630), wk =   0.0312500
        k(   10) = (   0.2500000   0.1443393   0.0000000), wk =   0.0625000
        k(   11) = (   0.2500000   0.1443393   0.1565815), wk =   0.1250000
        k(   12) = (   0.2500000   0.1443393  -0.3131630), wk =   0.0625000
        k(   13) = (   0.2500000   0.4330178   0.0000000), wk =   0.0625000
        k(   14) = (   0.2500000   0.4330178   0.1565815), wk =   0.1250000
        k(   15) = (   0.2500000   0.4330178  -0.3131630), wk =   0.0625000
        k(   16) = (  -0.5000000  -0.2886786   0.0000000), wk =   0.0312500
        k(   17) = (  -0.5000000  -0.2886786   0.1565815), wk =   0.0625000
        k(   18) = (  -0.5000000  -0.2886786  -0.3131630), wk =   0.0312500
        k(   19) = (  -0.5000000   0.0000000   0.0000000), wk =   0.0625000
        k(   20) = (  -0.5000000   0.0000000   0.1565815), wk =   0.1250000
        k(   21) = (  -0.5000000   0.0000000  -0.3131630), wk =   0.0625000
        k(   22) = (  -0.2500000   0.1443393   0.0000000), wk =   0.0625000
        k(   23) = (  -0.2500000   0.1443393  -0.1565815), wk =   0.1250000
        k(   24) = (  -0.2500000   0.1443393   0.3131630), wk =   0.0625000
        k(   25) = (  -0.2500000   0.4330178   0.0000000), wk =   0.0625000
        k(   26) = (  -0.2500000   0.4330178  -0.1565815), wk =   0.1250000
        k(   27) = (  -0.2500000   0.4330178   0.3131630), wk =   0.0625000
        k(   28) = (   0.5000000  -0.2886786   0.0000000), wk =   0.0312500
        k(   29) = (   0.5000000  -0.2886786  -0.1565815), wk =   0.0625000
        k(   30) = (   0.5000000  -0.2886786   0.3131630), wk =   0.0312500

     Dense  grid:    18845 G-vectors     FFT dimensions: (  30,  30,  48)

     Estimated max dynamical RAM per process >      44.06MB
               file Gd.GGA-PBE-paw-v1.0.UPF: wavefunction(s)  Xn Xn Xn Xn Xn Xn renormalized

     Subspace diagonalization in iterative solution of the eigenvalue problem:
     a serial algorithm will be used

 
     G-vector sticks info
     --------------------
     sticks:   dense  smooth     PW     G-vecs:    dense   smooth      PW
     Sum         595     595    169                18845    18845    3001
 


     bravais-lattice index     =            0
     lattice parameter (alat)  =       6.5936  a.u.
     unit-cell volume          =     396.3685 (a.u.)^3
     number of atoms/cell      =            2
     number of atomic types    =            1
     number of electrons       =        36.00
     number of Kohn-Sham states=           22
     kinetic-energy cutoff     =      50.0000  Ry
     charge density cutoff     =     200.0000  Ry
     convergence threshold     =      1.0E-06
     mixing beta               =       0.7000
     number of iterations used =            8  plain     mixing
     Exchange-correlation      = SLA PW PBX PBC ( 1  4  3  4 0 0)
     nstep                     =          150


     celldm(1)=   6.593632  celldm(2)=   0.000000  celldm(3)=   0.000000
     celldm(4)=   0.000000  celldm(5)=   0.000000  celldm(6)=   0.000000
               file Gd.GGA-PBE-paw-v1.0.UPF: wavefunction(s)  Xn Xn Xn Xn Xn Xn renormalized

     crystal axes: (cart. coord. in units of alat)
               a(1) = (   1.000000   0.000000   0.000000 )  
               a(2) = (  -0.500000   0.866015   0.000000 )  
               a(3) = (   0.000000   0.000000   1.596612 )  

     reciprocal axes: (cart. coord. in units 2 pi/alat)
               b(1) = (  1.000000  0.577357  0.000000 )  
               b(2) = (  0.000000  1.154714  0.000000 )  
               b(3) = (  0.000000  0.000000  0.626326 )  


     PseudoPot. # 1 for Gd read from file:
     /home/shaharpit/AcHProject/meam_fit/dft/qe_potentials/Gd.GGA-PBE-paw-v1.0.UPF
     MD5 check sum: 3e8e0d208da550914ae52eaf991d13de
     Pseudo is Projector augmented-wave + core cor, Zval = 18.0
     Generated using ATOMPAW code
     Shape of augmentation charge: BESSEL

     Subspace diagonalization in iterative solution of the eigenvalue problem:
     a serial algorithm will be used
     Using radial grid of 1110 points,  8 beta functions with: 
                l(1) =   0
                l(2) =   0
                l(3) =   1
                l(4) =   1
                l(5) =   2
                l(6) =   2
                l(7) =   3

                l(8) =   3
     Q(r) pseudized with 0 coefficients 


     atomic species   valence    mass     pseudopotential
        Gd            18.00   157.25000     Gd( 1.00)

      4 Sym. Ops., with inversion, found ( 2 have fractional translation)



   Cartesian axes

     site n.     atom                  positions (alat units)
         1           Gd  tau(   1) = (   0.5000500   0.2886428   1.1974593  )
         2           Gd  tau(   2) = (  -0.0000500   0.5773723   0.3991531  )

     number of k points=    30  gaussian smearing, width (Ry)=  0.0100
                       cart. coord. in units 2pi/alat
        k(    1) = (   0.0000000   0.0000000   0.0000000), wk =   0.0312500
        k(    2) = (   0.0000000   0.0000000   0.1565815), wk =   0.0625000
        k(    3) = (   0.0000000   0.0000000  -0.3131630), wk =   0.0312500
        k(    4) = (   0.0000000   0.2886786   0.0000000), wk =   0.0625000
        k(    5) = (   0.0000000   0.2886786   0.1565815), wk =   0.1250000
        k(    6) = (   0.0000000   0.2886786  -0.3131630), wk =   0.0625000
        k(    7) = (   0.0000000  -0.5773571   0.0000000), wk =   0.0312500
        k(    8) = (   0.0000000  -0.5773571   0.1565815), wk =   0.0625000
        k(    9) = (   0.0000000  -0.5773571  -0.3131630), wk =   0.0312500
        k(   10) = (   0.2500000   0.1443393   0.0000000), wk =   0.0625000
        k(   11) = (   0.2500000   0.1443393   0.1565815), wk =   0.1250000
        k(   12) = (   0.2500000   0.1443393  -0.3131630), wk =   0.0625000
        k(   13) = (   0.2500000   0.4330178   0.0000000), wk =   0.0625000
        k(   14) = (   0.2500000   0.4330178   0.1565815), wk =   0.1250000
        k(   15) = (   0.2500000   0.4330178  -0.3131630), wk =   0.0625000
        k(   16) = (  -0.5000000  -0.2886786   0.0000000), wk =   0.0312500
        k(   17) = (  -0.5000000  -0.2886786   0.1565815), wk =   0.0625000
        k(   18) = (  -0.5000000  -0.2886786  -0.3131630), wk =   0.0312500
        k(   19) = (  -0.5000000   0.0000000   0.0000000), wk =   0.0625000
        k(   20) = (  -0.5000000   0.0000000   0.1565815), wk =   0.1250000
        k(   21) = (  -0.5000000   0.0000000  -0.3131630), wk =   0.0625000
        k(   22) = (  -0.2500000   0.1443393   0.0000000), wk =   0.0625000
        k(   23) = (  -0.2500000   0.1443393  -0.1565815), wk =   0.1250000
        k(   24) = (  -0.2500000   0.1443393   0.3131630), wk =   0.0625000
        k(   25) = (  -0.2500000   0.4330178   0.0000000), wk =   0.0625000
        k(   26) = (  -0.2500000   0.4330178  -0.1565815), wk =   0.1250000
        k(   27) = (  -0.2500000   0.4330178   0.3131630), wk =   0.0625000
        k(   28) = (   0.5000000  -0.2886786   0.0000000), wk =   0.0312500
        k(   29) = (   0.5000000  -0.2886786  -0.1565815), wk =   0.0625000
        k(   30) = (   0.5000000  -0.2886786   0.3131630), wk =   0.0312500

     Dense  grid:    18845 G-vectors     FFT dimensions: (  30,  30,  48)

     Estimated max dynamical RAM per process >      44.06MB
 
     G-vector sticks info
     --------------------
     sticks:   dense  smooth     PW     G-vecs:    dense   smooth      PW
     Sum         595     595    169                18845    18845    3001
 


     bravais-lattice index     =            0
     lattice parameter (alat)  =       6.5936  a.u.
     unit-cell volume          =     396.3685 (a.u.)^3
     number of atoms/cell      =            2
     number of atomic types    =            1
     number of electrons       =        36.00
     number of Kohn-Sham states=           22
     kinetic-energy cutoff     =      50.0000  Ry
     charge density cutoff     =     200.0000  Ry
     convergence threshold     =      1.0E-06
     mixing beta               =       0.7000
     number of iterations used =            8  plain     mixing
     Exchange-correlation      = SLA PW PBX PBC ( 1  4  3  4 0 0)
     nstep                     =          150


     celldm(1)=   6.593632  celldm(2)=   0.000000  celldm(3)=   0.000000
     celldm(4)=   0.000000  celldm(5)=   0.000000  celldm(6)=   0.000000

     crystal axes: (cart. coord. in units of alat)
               a(1) = (   1.000000   0.000000   0.000000 )  
               a(2) = (  -0.500000   0.866015   0.000000 )  
               a(3) = (   0.000000   0.000000   1.596612 )  

     reciprocal axes: (cart. coord. in units 2 pi/alat)
               b(1) = (  1.000000  0.577357  0.000000 )  
               b(2) = (  0.000000  1.154714  0.000000 )  
               b(3) = (  0.000000  0.000000  0.626326 )  


     PseudoPot. # 1 for Gd read from file:
     /home/shaharpit/AcHProject/meam_fit/dft/qe_potentials/Gd.GGA-PBE-paw-v1.0.UPF
     MD5 check sum: 3e8e0d208da550914ae52eaf991d13de
     Pseudo is Projector augmented-wave + core cor, Zval = 18.0
     Generated using ATOMPAW code
     Shape of augmentation charge: BESSEL
     Using radial grid of 1110 points,  8 beta functions with: 
                l(1) =   0
                l(2) =   0
                l(3) =   1
                l(4) =   1
                l(5) =   2
                l(6) =   2
                l(7) =   3
                l(8) =   3
     Q(r) pseudized with 0 coefficients 


     atomic species   valence    mass     pseudopotential
        Gd            18.00   157.25000     Gd( 1.00)

      4 Sym. Ops., with inversion, found ( 2 have fractional translation)



   Cartesian axes

     site n.     atom                  positions (alat units)
         1           Gd  tau(   1) = (   0.5000500   0.2886428   1.1974593  )
         2           Gd  tau(   2) = (  -0.0000500   0.5773723   0.3991531  )

     number of k points=    30  gaussian smearing, width (Ry)=  0.0100
                       cart. coord. in units 2pi/alat
        k(    1) = (   0.0000000   0.0000000   0.0000000), wk =   0.0312500
        k(    2) = (   0.0000000   0.0000000   0.1565815), wk =   0.0625000
        k(    3) = (   0.0000000   0.0000000  -0.3131630), wk =   0.0312500
        k(    4) = (   0.0000000   0.2886786   0.0000000), wk =   0.0625000
        k(    5) = (   0.0000000   0.2886786   0.1565815), wk =   0.1250000
        k(    6) = (   0.0000000   0.2886786  -0.3131630), wk =   0.0625000
        k(    7) = (   0.0000000  -0.5773571   0.0000000), wk =   0.0312500
        k(    8) = (   0.0000000  -0.5773571   0.1565815), wk =   0.0625000
        k(    9) = (   0.0000000  -0.5773571  -0.3131630), wk =   0.0312500
        k(   10) = (   0.2500000   0.1443393   0.0000000), wk =   0.0625000
        k(   11) = (   0.2500000   0.1443393   0.1565815), wk =   0.1250000
        k(   12) = (   0.2500000   0.1443393  -0.3131630), wk =   0.0625000
        k(   13) = (   0.2500000   0.4330178   0.0000000), wk =   0.0625000
        k(   14) = (   0.2500000   0.4330178   0.1565815), wk =   0.1250000
        k(   15) = (   0.2500000   0.4330178  -0.3131630), wk =   0.0625000
        k(   16) = (  -0.5000000  -0.2886786   0.0000000), wk =   0.0312500
        k(   17) = (  -0.5000000  -0.2886786   0.1565815), wk =   0.0625000
        k(   18) = (  -0.5000000  -0.2886786  -0.3131630), wk =   0.0312500
        k(   19) = (  -0.5000000   0.0000000   0.0000000), wk =   0.0625000
        k(   20) = (  -0.5000000   0.0000000   0.1565815), wk =   0.1250000
        k(   21) = (  -0.5000000   0.0000000  -0.3131630), wk =   0.0625000
        k(   22) = (  -0.2500000   0.1443393   0.0000000), wk =   0.0625000
        k(   23) = (  -0.2500000   0.1443393  -0.1565815), wk =   0.1250000
        k(   24) = (  -0.2500000   0.1443393   0.3131630), wk =   0.0625000
        k(   25) = (  -0.2500000   0.4330178   0.0000000), wk =   0.0625000
        k(   26) = (  -0.2500000   0.4330178  -0.1565815), wk =   0.1250000
        k(   27) = (  -0.2500000   0.4330178   0.3131630), wk =   0.0625000
        k(   28) = (   0.5000000  -0.2886786   0.0000000), wk =   0.0312500
        k(   29) = (   0.5000000  -0.2886786  -0.1565815), wk =   0.0625000
        k(   30) = (   0.5000000  -0.2886786   0.3131630), wk =   0.0312500

     Dense  grid:    18845 G-vectors     FFT dimensions: (  30,  30,  48)

     Estimated max dynamical RAM per process >      44.06MB
               file Gd.GGA-PBE-paw-v1.0.UPF: wavefunction(s)  Xn Xn Xn Xn Xn Xn renormalized

     Subspace diagonalization in iterative solution of the eigenvalue problem:
     a serial algorithm will be used

 
     G-vector sticks info
     --------------------
     sticks:   dense  smooth     PW     G-vecs:    dense   smooth      PW
     Sum         595     595    169                18845    18845    3001
 


     bravais-lattice index     =            0
     lattice parameter (alat)  =       6.5936  a.u.
     unit-cell volume          =     396.3685 (a.u.)^3
     number of atoms/cell      =            2
     number of atomic types    =            1
     number of electrons       =        36.00
     number of Kohn-Sham states=           22
     kinetic-energy cutoff     =      50.0000  Ry
     charge density cutoff     =     200.0000  Ry
     convergence threshold     =      1.0E-06
     mixing beta               =       0.7000
     number of iterations used =            8  plain     mixing
     Exchange-correlation      = SLA PW PBX PBC ( 1  4  3  4 0 0)
     nstep                     =          150


     celldm(1)=   6.593632  celldm(2)=   0.000000  celldm(3)=   0.000000
     celldm(4)=   0.000000  celldm(5)=   0.000000  celldm(6)=   0.000000

     crystal axes: (cart. coord. in units of alat)
               a(1) = (   1.000000   0.000000   0.000000 )  
               a(2) = (  -0.500000   0.866015   0.000000 )  
               a(3) = (   0.000000   0.000000   1.596612 )  

     reciprocal axes: (cart. coord. in units 2 pi/alat)
               b(1) = (  1.000000  0.577357  0.000000 )  
               b(2) = (  0.000000  1.154714  0.000000 )  
               b(3) = (  0.000000  0.000000  0.626326 )  


     PseudoPot. # 1 for Gd read from file:
     /home/shaharpit/AcHProject/meam_fit/dft/qe_potentials/Gd.GGA-PBE-paw-v1.0.UPF
     MD5 check sum: 3e8e0d208da550914ae52eaf991d13de
     Pseudo is Projector augmented-wave + core cor, Zval = 18.0
     Generated using ATOMPAW code
     Shape of augmentation charge: BESSEL
     Using radial grid of 1110 points,  8 beta functions with: 
                l(1) =   0
                l(2) =   0
                l(3) =   1
                l(4) =   1
                l(5) =   2
                l(6) =   2
                l(7) =   3
                l(8) =   3
     Q(r) pseudized with 0 coefficients 


     atomic species   valence    mass     pseudopotential
        Gd            18.00   157.25000     Gd( 1.00)

      4 Sym. Ops., with inversion, found ( 2 have fractional translation)



   Cartesian axes

     site n.     atom                  positions (alat units)
         1           Gd  tau(   1) = (   0.5000500   0.2886428   1.1974593  )
         2           Gd  tau(   2) = (  -0.0000500   0.5773723   0.3991531  )

     number of k points=    30  gaussian smearing, width (Ry)=  0.0100
                       cart. coord. in units 2pi/alat
        k(    1) = (   0.0000000   0.0000000   0.0000000), wk =   0.0312500
        k(    2) = (   0.0000000   0.0000000   0.1565815), wk =   0.0625000
        k(    3) = (   0.0000000   0.0000000  -0.3131630), wk =   0.0312500
        k(    4) = (   0.0000000   0.2886786   0.0000000), wk =   0.0625000
        k(    5) = (   0.0000000   0.2886786   0.1565815), wk =   0.1250000
        k(    6) = (   0.0000000   0.2886786  -0.3131630), wk =   0.0625000
        k(    7) = (   0.0000000  -0.5773571   0.0000000), wk =   0.0312500
        k(    8) = (   0.0000000  -0.5773571   0.1565815), wk =   0.0625000
        k(    9) = (   0.0000000  -0.5773571  -0.3131630), wk =   0.0312500
        k(   10) = (   0.2500000   0.1443393   0.0000000), wk =   0.0625000
        k(   11) = (   0.2500000   0.1443393   0.1565815), wk =   0.1250000
        k(   12) = (   0.2500000   0.1443393  -0.3131630), wk =   0.0625000
        k(   13) = (   0.2500000   0.4330178   0.0000000), wk =   0.0625000
        k(   14) = (   0.2500000   0.4330178   0.1565815), wk =   0.1250000
        k(   15) = (   0.2500000   0.4330178  -0.3131630), wk =   0.0625000
        k(   16) = (  -0.5000000  -0.2886786   0.0000000), wk =   0.0312500
        k(   17) = (  -0.5000000  -0.2886786   0.1565815), wk =   0.0625000
        k(   18) = (  -0.5000000  -0.2886786  -0.3131630), wk =   0.0312500
        k(   19) = (  -0.5000000   0.0000000   0.0000000), wk =   0.0625000
        k(   20) = (  -0.5000000   0.0000000   0.1565815), wk =   0.1250000
        k(   21) = (  -0.5000000   0.0000000  -0.3131630), wk =   0.0625000
        k(   22) = (  -0.2500000   0.1443393   0.0000000), wk =   0.0625000
        k(   23) = (  -0.2500000   0.1443393  -0.1565815), wk =   0.1250000
        k(   24) = (  -0.2500000   0.1443393   0.3131630), wk =   0.0625000
        k(   25) = (  -0.2500000   0.4330178   0.0000000), wk =   0.0625000
        k(   26) = (  -0.2500000   0.4330178  -0.1565815), wk =   0.1250000
        k(   27) = (  -0.2500000   0.4330178   0.3131630), wk =   0.0625000
        k(   28) = (   0.5000000  -0.2886786   0.0000000), wk =   0.0312500
        k(   29) = (   0.5000000  -0.2886786  -0.1565815), wk =   0.0625000
        k(   30) = (   0.5000000  -0.2886786   0.3131630), wk =   0.0312500

     Dense  grid:    18845 G-vectors     FFT dimensions: (  30,  30,  48)

     Estimated max dynamical RAM per process >      44.06MB
               file Gd.GGA-PBE-paw-v1.0.UPF: wavefunction(s)  Xn Xn Xn Xn Xn Xn renormalized

     Subspace diagonalization in iterative solution of the eigenvalue problem:
     a serial algorithm will be used

 
     G-vector sticks info
     --------------------
     sticks:   dense  smooth     PW     G-vecs:    dense   smooth      PW
     Sum         595     595    169                18845    18845    3001
 


     bravais-lattice index     =            0
     lattice parameter (alat)  =       6.5936  a.u.
     unit-cell volume          =     396.3685 (a.u.)^3
     number of atoms/cell      =            2
     number of atomic types    =            1
     number of electrons       =        36.00
     number of Kohn-Sham states=           22
     kinetic-energy cutoff     =      50.0000  Ry
     charge density cutoff     =     200.0000  Ry
     convergence threshold     =      1.0E-06
     mixing beta               =       0.7000
     number of iterations used =            8  plain     mixing
     Exchange-correlation      = SLA PW PBX PBC ( 1  4  3  4 0 0)
     nstep                     =          150


     celldm(1)=   6.593632  celldm(2)=   0.000000  celldm(3)=   0.000000
     celldm(4)=   0.000000  celldm(5)=   0.000000  celldm(6)=   0.000000

     crystal axes: (cart. coord. in units of alat)
               a(1) = (   1.000000   0.000000   0.000000 )  
               a(2) = (  -0.500000   0.866015   0.000000 )  
               a(3) = (   0.000000   0.000000   1.596612 )  

     reciprocal axes: (cart. coord. in units 2 pi/alat)
               b(1) = (  1.000000  0.577357  0.000000 )  
               b(2) = (  0.000000  1.154714  0.000000 )  
               b(3) = (  0.000000  0.000000  0.626326 )  


     PseudoPot. # 1 for Gd read from file:
     /home/shaharpit/AcHProject/meam_fit/dft/qe_potentials/Gd.GGA-PBE-paw-v1.0.UPF
     MD5 check sum: 3e8e0d208da550914ae52eaf991d13de
     Pseudo is Projector augmented-wave + core cor, Zval = 18.0
     Generated using ATOMPAW code
     Shape of augmentation charge: BESSEL
     Using radial grid of 1110 points,  8 beta functions with: 
                l(1) =   0
                l(2) =   0
                l(3) =   1
                l(4) =   1
                l(5) =   2
                l(6) =   2
                l(7) =   3
                l(8) =   3
     Q(r) pseudized with 0 coefficients 


     atomic species   valence    mass     pseudopotential
        Gd            18.00   157.25000     Gd( 1.00)

      4 Sym. Ops., with inversion, found ( 2 have fractional translation)



   Cartesian axes

     site n.     atom                  positions (alat units)
         1           Gd  tau(   1) = (   0.5000500   0.2886428   1.1974593  )
         2           Gd  tau(   2) = (  -0.0000500   0.5773723   0.3991531  )

     number of k points=    30  gaussian smearing, width (Ry)=  0.0100
                       cart. coord. in units 2pi/alat
        k(    1) = (   0.0000000   0.0000000   0.0000000), wk =   0.0312500
        k(    2) = (   0.0000000   0.0000000   0.1565815), wk =   0.0625000
        k(    3) = (   0.0000000   0.0000000  -0.3131630), wk =   0.0312500
        k(    4) = (   0.0000000   0.2886786   0.0000000), wk =   0.0625000
        k(    5) = (   0.0000000   0.2886786   0.1565815), wk =   0.1250000
        k(    6) = (   0.0000000   0.2886786  -0.3131630), wk =   0.0625000
        k(    7) = (   0.0000000  -0.5773571   0.0000000), wk =   0.0312500
        k(    8) = (   0.0000000  -0.5773571   0.1565815), wk =   0.0625000
        k(    9) = (   0.0000000  -0.5773571  -0.3131630), wk =   0.0312500
        k(   10) = (   0.2500000   0.1443393   0.0000000), wk =   0.0625000
        k(   11) = (   0.2500000   0.1443393   0.1565815), wk =   0.1250000
        k(   12) = (   0.2500000   0.1443393  -0.3131630), wk =   0.0625000
        k(   13) = (   0.2500000   0.4330178   0.0000000), wk =   0.0625000
        k(   14) = (   0.2500000   0.4330178   0.1565815), wk =   0.1250000
        k(   15) = (   0.2500000   0.4330178  -0.3131630), wk =   0.0625000
        k(   16) = (  -0.5000000  -0.2886786   0.0000000), wk =   0.0312500
        k(   17) = (  -0.5000000  -0.2886786   0.1565815), wk =   0.0625000
        k(   18) = (  -0.5000000  -0.2886786  -0.3131630), wk =   0.0312500
        k(   19) = (  -0.5000000   0.0000000   0.0000000), wk =   0.0625000
        k(   20) = (  -0.5000000   0.0000000   0.1565815), wk =   0.1250000
        k(   21) = (  -0.5000000   0.0000000  -0.3131630), wk =   0.0625000
        k(   22) = (  -0.2500000   0.1443393   0.0000000), wk =   0.0625000
        k(   23) = (  -0.2500000   0.1443393  -0.1565815), wk =   0.1250000
        k(   24) = (  -0.2500000   0.1443393   0.3131630), wk =   0.0625000
        k(   25) = (  -0.2500000   0.4330178   0.0000000), wk =   0.0625000
        k(   26) = (  -0.2500000   0.4330178  -0.1565815), wk =   0.1250000
        k(   27) = (  -0.2500000   0.4330178   0.3131630), wk =   0.0625000
        k(   28) = (   0.5000000  -0.2886786   0.0000000), wk =   0.0312500
        k(   29) = (   0.5000000  -0.2886786  -0.1565815), wk =   0.0625000
        k(   30) = (   0.5000000  -0.2886786   0.3131630), wk =   0.0312500

     Dense  grid:    18845 G-vectors     FFT dimensions: (  30,  30,  48)

     Estimated max dynamical RAM per process >      44.06MB
               file Gd.GGA-PBE-paw-v1.0.UPF: wavefunction(s)  Xn Xn Xn Xn Xn Xn renormalized

     Subspace diagonalization in iterative solution of the eigenvalue problem:
     a serial algorithm will be used

               file Gd.GGA-PBE-paw-v1.0.UPF: wavefunction(s)  Xn Xn Xn Xn Xn Xn renormalized

     Subspace diagonalization in iterative solution of the eigenvalue problem:
     a serial algorithm will be used

 
     G-vector sticks info
     --------------------
     sticks:   dense  smooth     PW     G-vecs:    dense   smooth      PW
     Sum         595     595    169                18845    18845    3001
 


     bravais-lattice index     =            0
     lattice parameter (alat)  =       6.5936  a.u.
     unit-cell volume          =     396.3685 (a.u.)^3
     number of atoms/cell      =            2
     number of atomic types    =            1
     number of electrons       =        36.00
     number of Kohn-Sham states=           22
     kinetic-energy cutoff     =      50.0000  Ry
     charge density cutoff     =     200.0000  Ry
     convergence threshold     =      1.0E-06
     mixing beta               =       0.7000
     number of iterations used =            8  plain     mixing
     Exchange-correlation      = SLA PW PBX PBC ( 1  4  3  4 0 0)
     nstep                     =          150


     celldm(1)=   6.593632  celldm(2)=   0.000000  celldm(3)=   0.000000
     celldm(4)=   0.000000  celldm(5)=   0.000000  celldm(6)=   0.000000

     crystal axes: (cart. coord. in units of alat)
               a(1) = (   1.000000   0.000000   0.000000 )  
               a(2) = (  -0.500000   0.866015   0.000000 )  
               a(3) = (   0.000000   0.000000   1.596612 )  

     reciprocal axes: (cart. coord. in units 2 pi/alat)
               b(1) = (  1.000000  0.577357  0.000000 )  
               b(2) = (  0.000000  1.154714  0.000000 )  
               b(3) = (  0.000000  0.000000  0.626326 )  


     PseudoPot. # 1 for Gd read from file:
     /home/shaharpit/AcHProject/meam_fit/dft/qe_potentials/Gd.GGA-PBE-paw-v1.0.UPF
     MD5 check sum: 3e8e0d208da550914ae52eaf991d13de
     Pseudo is Projector augmented-wave + core cor, Zval = 18.0
     Generated using ATOMPAW code
     Shape of augmentation charge: BESSEL
     Using radial grid of 1110 points,  8 beta functions with: 
                l(1) =   0
                l(2) =   0
                l(3) =   1
                l(4) =   1
                l(5) =   2
                l(6) =   2
                l(7) =   3
                l(8) =   3
     Q(r) pseudized with 0 coefficients 


     atomic species   valence    mass     pseudopotential
        Gd            18.00   157.25000     Gd( 1.00)

      4 Sym. Ops., with inversion, found ( 2 have fractional translation)



   Cartesian axes

     site n.     atom                  positions (alat units)
         1           Gd  tau(   1) = (   0.5000500   0.2886428   1.1974593  )
         2           Gd  tau(   2) = (  -0.0000500   0.5773723   0.3991531  )

     number of k points=    30  gaussian smearing, width (Ry)=  0.0100
                       cart. coord. in units 2pi/alat
        k(    1) = (   0.0000000   0.0000000   0.0000000), wk =   0.0312500
        k(    2) = (   0.0000000   0.0000000   0.1565815), wk =   0.0625000
        k(    3) = (   0.0000000   0.0000000  -0.3131630), wk =   0.0312500
        k(    4) = (   0.0000000   0.2886786   0.0000000), wk =   0.0625000
        k(    5) = (   0.0000000   0.2886786   0.1565815), wk =   0.1250000
        k(    6) = (   0.0000000   0.2886786  -0.3131630), wk =   0.0625000
        k(    7) = (   0.0000000  -0.5773571   0.0000000), wk =   0.0312500
        k(    8) = (   0.0000000  -0.5773571   0.1565815), wk =   0.0625000
        k(    9) = (   0.0000000  -0.5773571  -0.3131630), wk =   0.0312500
        k(   10) = (   0.2500000   0.1443393   0.0000000), wk =   0.0625000
        k(   11) = (   0.2500000   0.1443393   0.1565815), wk =   0.1250000
        k(   12) = (   0.2500000   0.1443393  -0.3131630), wk =   0.0625000
        k(   13) = (   0.2500000   0.4330178   0.0000000), wk =   0.0625000
        k(   14) = (   0.2500000   0.4330178   0.1565815), wk =   0.1250000
        k(   15) = (   0.2500000   0.4330178  -0.3131630), wk =   0.0625000
        k(   16) = (  -0.5000000  -0.2886786   0.0000000), wk =   0.0312500
        k(   17) = (  -0.5000000  -0.2886786   0.1565815), wk =   0.0625000
        k(   18) = (  -0.5000000  -0.2886786  -0.3131630), wk =   0.0312500
        k(   19) = (  -0.5000000   0.0000000   0.0000000), wk =   0.0625000
        k(   20) = (  -0.5000000   0.0000000   0.1565815), wk =   0.1250000
        k(   21) = (  -0.5000000   0.0000000  -0.3131630), wk =   0.0625000
        k(   22) = (  -0.2500000   0.1443393   0.0000000), wk =   0.0625000
        k(   23) = (  -0.2500000   0.1443393  -0.1565815), wk =   0.1250000
        k(   24) = (  -0.2500000   0.1443393   0.3131630), wk =   0.0625000
        k(   25) = (  -0.2500000   0.4330178   0.0000000), wk =   0.0625000
        k(   26) = (  -0.2500000   0.4330178  -0.1565815), wk =   0.1250000
        k(   27) = (  -0.2500000   0.4330178   0.3131630), wk =   0.0625000
        k(   28) = (   0.5000000  -0.2886786   0.0000000), wk =   0.0312500
        k(   29) = (   0.5000000  -0.2886786  -0.1565815), wk =   0.0625000
        k(   30) = (   0.5000000  -0.2886786   0.3131630), wk =   0.0312500

     Dense  grid:    18845 G-vectors     FFT dimensions: (  30,  30,  48)

     Estimated max dynamical RAM per process >      44.06MB
 
     G-vector sticks info
     --------------------
     sticks:   dense  smooth     PW     G-vecs:    dense   smooth      PW
     Sum         595     595    169                18845    18845    3001
 


     bravais-lattice index     =            0
     lattice parameter (alat)  =       6.5936  a.u.
     unit-cell volume          =     396.3685 (a.u.)^3
     number of atoms/cell      =            2
     number of atomic types    =            1
     number of electrons       =        36.00
     number of Kohn-Sham states=           22
     kinetic-energy cutoff     =      50.0000  Ry
     charge density cutoff     =     200.0000  Ry
     convergence threshold     =      1.0E-06
     mixing beta               =       0.7000
     number of iterations used =            8  plain     mixing
     Exchange-correlation      = SLA PW PBX PBC ( 1  4  3  4 0 0)
     nstep                     =          150


     celldm(1)=   6.593632  celldm(2)=   0.000000  celldm(3)=   0.000000
     celldm(4)=   0.000000  celldm(5)=   0.000000  celldm(6)=   0.000000

     crystal axes: (cart. coord. in units of alat)
               a(1) = (   1.000000   0.000000   0.000000 )  
               a(2) = (  -0.500000   0.866015   0.000000 )  
               a(3) = (   0.000000   0.000000   1.596612 )  

     reciprocal axes: (cart. coord. in units 2 pi/alat)
               b(1) = (  1.000000  0.577357  0.000000 )  
               b(2) = (  0.000000  1.154714  0.000000 )  
               b(3) = (  0.000000  0.000000  0.626326 )  


     PseudoPot. # 1 for Gd read from file:
     /home/shaharpit/AcHProject/meam_fit/dft/qe_potentials/Gd.GGA-PBE-paw-v1.0.UPF
     MD5 check sum: 3e8e0d208da550914ae52eaf991d13de
     Pseudo is Projector augmented-wave + core cor, Zval = 18.0
     Generated using ATOMPAW code
     Shape of augmentation charge: BESSEL
     Using radial grid of 1110 points,  8 beta functions with: 
                l(1) =   0
                l(2) =   0
                l(3) =   1
                l(4) =   1
                l(5) =   2
                l(6) =   2
                l(7) =   3
                l(8) =   3
     Q(r) pseudized with 0 coefficients 


     atomic species   valence    mass     pseudopotential
        Gd            18.00   157.25000     Gd( 1.00)

      4 Sym. Ops., with inversion, found ( 2 have fractional translation)



   Cartesian axes

     site n.     atom                  positions (alat units)
         1           Gd  tau(   1) = (   0.5000500   0.2886428   1.1974593  )
         2           Gd  tau(   2) = (  -0.0000500   0.5773723   0.3991531  )

     number of k points=    30  gaussian smearing, width (Ry)=  0.0100
                       cart. coord. in units 2pi/alat
        k(    1) = (   0.0000000   0.0000000   0.0000000), wk =   0.0312500
        k(    2) = (   0.0000000   0.0000000   0.1565815), wk =   0.0625000
        k(    3) = (   0.0000000   0.0000000  -0.3131630), wk =   0.0312500
        k(    4) = (   0.0000000   0.2886786   0.0000000), wk =   0.0625000
        k(    5) = (   0.0000000   0.2886786   0.1565815), wk =   0.1250000
        k(    6) = (   0.0000000   0.2886786  -0.3131630), wk =   0.0625000
        k(    7) = (   0.0000000  -0.5773571   0.0000000), wk =   0.0312500
        k(    8) = (   0.0000000  -0.5773571   0.1565815), wk =   0.0625000
        k(    9) = (   0.0000000  -0.5773571  -0.3131630), wk =   0.0312500
        k(   10) = (   0.2500000   0.1443393   0.0000000), wk =   0.0625000
        k(   11) = (   0.2500000   0.1443393   0.1565815), wk =   0.1250000
        k(   12) = (   0.2500000   0.1443393  -0.3131630), wk =   0.0625000
        k(   13) = (   0.2500000   0.4330178   0.0000000), wk =   0.0625000
        k(   14) = (   0.2500000   0.4330178   0.1565815), wk =   0.1250000
        k(   15) = (   0.2500000   0.4330178  -0.3131630), wk =   0.0625000
        k(   16) = (  -0.5000000  -0.2886786   0.0000000), wk =   0.0312500
        k(   17) = (  -0.5000000  -0.2886786   0.1565815), wk =   0.0625000
        k(   18) = (  -0.5000000  -0.2886786  -0.3131630), wk =   0.0312500
        k(   19) = (  -0.5000000   0.0000000   0.0000000), wk =   0.0625000
        k(   20) = (  -0.5000000   0.0000000   0.1565815), wk =   0.1250000
        k(   21) = (  -0.5000000   0.0000000  -0.3131630), wk =   0.0625000
        k(   22) = (  -0.2500000   0.1443393   0.0000000), wk =   0.0625000
        k(   23) = (  -0.2500000   0.1443393  -0.1565815), wk =   0.1250000
        k(   24) = (  -0.2500000   0.1443393   0.3131630), wk =   0.0625000
        k(   25) = (  -0.2500000   0.4330178   0.0000000), wk =   0.0625000
        k(   26) = (  -0.2500000   0.4330178  -0.1565815), wk =   0.1250000
        k(   27) = (  -0.2500000   0.4330178   0.3131630), wk =   0.0625000
        k(   28) = (   0.5000000  -0.2886786   0.0000000), wk =   0.0312500
        k(   29) = (   0.5000000  -0.2886786  -0.1565815), wk =   0.0625000
        k(   30) = (   0.5000000  -0.2886786   0.3131630), wk =   0.0312500

     Dense  grid:    18845 G-vectors     FFT dimensions: (  30,  30,  48)

     Estimated max dynamical RAM per process >      44.06MB
               file Gd.GGA-PBE-paw-v1.0.UPF: wavefunction(s)  Xn Xn Xn Xn Xn Xn renormalized

     Subspace diagonalization in iterative solution of the eigenvalue problem:
     a serial algorithm will be used

               file Gd.GGA-PBE-paw-v1.0.UPF: wavefunction(s)  Xn Xn Xn Xn Xn Xn renormalized

     Subspace diagonalization in iterative solution of the eigenvalue problem:
     a serial algorithm will be used

 
     G-vector sticks info
     --------------------
     sticks:   dense  smooth     PW     G-vecs:    dense   smooth      PW
     Sum         595     595    169                18845    18845    3001
 


     bravais-lattice index     =            0
     lattice parameter (alat)  =       6.5936  a.u.
     unit-cell volume          =     396.3685 (a.u.)^3
     number of atoms/cell      =            2
     number of atomic types    =            1
     number of electrons       =        36.00
     number of Kohn-Sham states=           22
     kinetic-energy cutoff     =      50.0000  Ry
     charge density cutoff     =     200.0000  Ry
     convergence threshold     =      1.0E-06
     mixing beta               =       0.7000
     number of iterations used =            8  plain     mixing
     Exchange-correlation      = SLA PW PBX PBC ( 1  4  3  4 0 0)
     nstep                     =          150


     celldm(1)=   6.593632  celldm(2)=   0.000000  celldm(3)=   0.000000
     celldm(4)=   0.000000  celldm(5)=   0.000000  celldm(6)=   0.000000

     crystal axes: (cart. coord. in units of alat)
               a(1) = (   1.000000   0.000000   0.000000 )  
               a(2) = (  -0.500000   0.866015   0.000000 )  
               a(3) = (   0.000000   0.000000   1.596612 )  

     reciprocal axes: (cart. coord. in units 2 pi/alat)
               b(1) = (  1.000000  0.577357  0.000000 )  
               b(2) = (  0.000000  1.154714  0.000000 )  
               b(3) = (  0.000000  0.000000  0.626326 )  


     PseudoPot. # 1 for Gd read from file:
     /home/shaharpit/AcHProject/meam_fit/dft/qe_potentials/Gd.GGA-PBE-paw-v1.0.UPF
     MD5 check sum: 3e8e0d208da550914ae52eaf991d13de
     Pseudo is Projector augmented-wave + core cor, Zval = 18.0
     Generated using ATOMPAW code
     Shape of augmentation charge: BESSEL
     Using radial grid of 1110 points,  8 beta functions with: 
                l(1) =   0
                l(2) =   0
                l(3) =   1
                l(4) =   1
                l(5) =   2
                l(6) =   2
                l(7) =   3
                l(8) =   3
     Q(r) pseudized with 0 coefficients 


     atomic species   valence    mass     pseudopotential
        Gd            18.00   157.25000     Gd( 1.00)

      4 Sym. Ops., with inversion, found ( 2 have fractional translation)



   Cartesian axes

     site n.     atom                  positions (alat units)
         1           Gd  tau(   1) = (   0.5000500   0.2886428   1.1974593  )
         2           Gd  tau(   2) = (  -0.0000500   0.5773723   0.3991531  )

     number of k points=    30  gaussian smearing, width (Ry)=  0.0100
                       cart. coord. in units 2pi/alat
        k(    1) = (   0.0000000   0.0000000   0.0000000), wk =   0.0312500
        k(    2) = (   0.0000000   0.0000000   0.1565815), wk =   0.0625000
        k(    3) = (   0.0000000   0.0000000  -0.3131630), wk =   0.0312500
        k(    4) = (   0.0000000   0.2886786   0.0000000), wk =   0.0625000
        k(    5) = (   0.0000000   0.2886786   0.1565815), wk =   0.1250000
        k(    6) = (   0.0000000   0.2886786  -0.3131630), wk =   0.0625000
        k(    7) = (   0.0000000  -0.5773571   0.0000000), wk =   0.0312500
        k(    8) = (   0.0000000  -0.5773571   0.1565815), wk =   0.0625000
        k(    9) = (   0.0000000  -0.5773571  -0.3131630), wk =   0.0312500
        k(   10) = (   0.2500000   0.1443393   0.0000000), wk =   0.0625000
        k(   11) = (   0.2500000   0.1443393   0.1565815), wk =   0.1250000
        k(   12) = (   0.2500000   0.1443393  -0.3131630), wk =   0.0625000
        k(   13) = (   0.2500000   0.4330178   0.0000000), wk =   0.0625000
        k(   14) = (   0.2500000   0.4330178   0.1565815), wk =   0.1250000
        k(   15) = (   0.2500000   0.4330178  -0.3131630), wk =   0.0625000
        k(   16) = (  -0.5000000  -0.2886786   0.0000000), wk =   0.0312500
        k(   17) = (  -0.5000000  -0.2886786   0.1565815), wk =   0.0625000
        k(   18) = (  -0.5000000  -0.2886786  -0.3131630), wk =   0.0312500
        k(   19) = (  -0.5000000   0.0000000   0.0000000), wk =   0.0625000
        k(   20) = (  -0.5000000   0.0000000   0.1565815), wk =   0.1250000
        k(   21) = (  -0.5000000   0.0000000  -0.3131630), wk =   0.0625000
        k(   22) = (  -0.2500000   0.1443393   0.0000000), wk =   0.0625000
        k(   23) = (  -0.2500000   0.1443393  -0.1565815), wk =   0.1250000
        k(   24) = (  -0.2500000   0.1443393   0.3131630), wk =   0.0625000
        k(   25) = (  -0.2500000   0.4330178   0.0000000), wk =   0.0625000
        k(   26) = (  -0.2500000   0.4330178  -0.1565815), wk =   0.1250000
        k(   27) = (  -0.2500000   0.4330178   0.3131630), wk =   0.0625000
        k(   28) = (   0.5000000  -0.2886786   0.0000000), wk =   0.0312500
        k(   29) = (   0.5000000  -0.2886786  -0.1565815), wk =   0.0625000
        k(   30) = (   0.5000000  -0.2886786   0.3131630), wk =   0.0312500

     Dense  grid:    18845 G-vectors     FFT dimensions: (  30,  30,  48)

     Estimated max dynamical RAM per process >      44.06MB
 
     G-vector sticks info
     --------------------
     sticks:   dense  smooth     PW     G-vecs:    dense   smooth      PW
     Sum         595     595    169                18845    18845    3001
 


     bravais-lattice index     =            0
     lattice parameter (alat)  =       6.5936  a.u.
     unit-cell volume          =     396.3685 (a.u.)^3
     number of atoms/cell      =            2
     number of atomic types    =            1
     number of electrons       =        36.00
     number of Kohn-Sham states=           22
     kinetic-energy cutoff     =      50.0000  Ry
     charge density cutoff     =     200.0000  Ry
     convergence threshold     =      1.0E-06
     mixing beta               =       0.7000
     number of iterations used =            8  plain     mixing
     Exchange-correlation      = SLA PW PBX PBC ( 1  4  3  4 0 0)
     nstep                     =          150


     celldm(1)=   6.593632  celldm(2)=   0.000000  celldm(3)=   0.000000
     celldm(4)=   0.000000  celldm(5)=   0.000000  celldm(6)=   0.000000

     crystal axes: (cart. coord. in units of alat)
               a(1) = (   1.000000   0.000000   0.000000 )  
               a(2) = (  -0.500000   0.866015   0.000000 )  
               a(3) = (   0.000000   0.000000   1.596612 )  

     reciprocal axes: (cart. coord. in units 2 pi/alat)
               b(1) = (  1.000000  0.577357  0.000000 )  
               b(2) = (  0.000000  1.154714  0.000000 )  
               b(3) = (  0.000000  0.000000  0.626326 )  


     PseudoPot. # 1 for Gd read from file:
     /home/shaharpit/AcHProject/meam_fit/dft/qe_potentials/Gd.GGA-PBE-paw-v1.0.UPF
     MD5 check sum: 3e8e0d208da550914ae52eaf991d13de
     Pseudo is Projector augmented-wave + core cor, Zval = 18.0
     Generated using ATOMPAW code
     Shape of augmentation charge: BESSEL
     Using radial grid of 1110 points,  8 beta functions with: 
                l(1) =   0
                l(2) =   0
                l(3) =   1
                l(4) =   1
                l(5) =   2
                l(6) =   2
                l(7) =   3
                l(8) =   3
     Q(r) pseudized with 0 coefficients 


     atomic species   valence    mass     pseudopotential
        Gd            18.00   157.25000     Gd( 1.00)

      4 Sym. Ops., with inversion, found ( 2 have fractional translation)



   Cartesian axes

     site n.     atom                  positions (alat units)
         1           Gd  tau(   1) = (   0.5000500   0.2886428   1.1974593  )
         2           Gd  tau(   2) = (  -0.0000500   0.5773723   0.3991531  )

     number of k points=    30  gaussian smearing, width (Ry)=  0.0100
                       cart. coord. in units 2pi/alat
        k(    1) = (   0.0000000   0.0000000   0.0000000), wk =   0.0312500
        k(    2) = (   0.0000000   0.0000000   0.1565815), wk =   0.0625000
        k(    3) = (   0.0000000   0.0000000  -0.3131630), wk =   0.0312500
        k(    4) = (   0.0000000   0.2886786   0.0000000), wk =   0.0625000
        k(    5) = (   0.0000000   0.2886786   0.1565815), wk =   0.1250000
        k(    6) = (   0.0000000   0.2886786  -0.3131630), wk =   0.0625000
        k(    7) = (   0.0000000  -0.5773571   0.0000000), wk =   0.0312500
        k(    8) = (   0.0000000  -0.5773571   0.1565815), wk =   0.0625000
        k(    9) = (   0.0000000  -0.5773571  -0.3131630), wk =   0.0312500
        k(   10) = (   0.2500000   0.1443393   0.0000000), wk =   0.0625000
        k(   11) = (   0.2500000   0.1443393   0.1565815), wk =   0.1250000
        k(   12) = (   0.2500000   0.1443393  -0.3131630), wk =   0.0625000
        k(   13) = (   0.2500000   0.4330178   0.0000000), wk =   0.0625000
        k(   14) = (   0.2500000   0.4330178   0.1565815), wk =   0.1250000
        k(   15) = (   0.2500000   0.4330178  -0.3131630), wk =   0.0625000
        k(   16) = (  -0.5000000  -0.2886786   0.0000000), wk =   0.0312500
        k(   17) = (  -0.5000000  -0.2886786   0.1565815), wk =   0.0625000
        k(   18) = (  -0.5000000  -0.2886786  -0.3131630), wk =   0.0312500
        k(   19) = (  -0.5000000   0.0000000   0.0000000), wk =   0.0625000
        k(   20) = (  -0.5000000   0.0000000   0.1565815), wk =   0.1250000
        k(   21) = (  -0.5000000   0.0000000  -0.3131630), wk =   0.0625000
        k(   22) = (  -0.2500000   0.1443393   0.0000000), wk =   0.0625000
        k(   23) = (  -0.2500000   0.1443393  -0.1565815), wk =   0.1250000
        k(   24) = (  -0.2500000   0.1443393   0.3131630), wk =   0.0625000
        k(   25) = (  -0.2500000   0.4330178   0.0000000), wk =   0.0625000
        k(   26) = (  -0.2500000   0.4330178  -0.1565815), wk =   0.1250000
        k(   27) = (  -0.2500000   0.4330178   0.3131630), wk =   0.0625000
        k(   28) = (   0.5000000  -0.2886786   0.0000000), wk =   0.0312500
        k(   29) = (   0.5000000  -0.2886786  -0.1565815), wk =   0.0625000
        k(   30) = (   0.5000000  -0.2886786   0.3131630), wk =   0.0312500

     Dense  grid:    18845 G-vectors     FFT dimensions: (  30,  30,  48)

     Estimated max dynamical RAM per process >      44.06MB
               file Gd.GGA-PBE-paw-v1.0.UPF: wavefunction(s)  Xn Xn Xn Xn Xn Xn renormalized

     Subspace diagonalization in iterative solution of the eigenvalue problem:
     a serial algorithm will be used

 
     G-vector sticks info
     --------------------
     sticks:   dense  smooth     PW     G-vecs:    dense   smooth      PW
     Sum         595     595    169                18845    18845    3001
 


     bravais-lattice index     =            0
     lattice parameter (alat)  =       6.5936  a.u.
     unit-cell volume          =     396.3685 (a.u.)^3
     number of atoms/cell      =            2
     number of atomic types    =            1
     number of electrons       =        36.00
     number of Kohn-Sham states=           22
     kinetic-energy cutoff     =      50.0000  Ry
     charge density cutoff     =     200.0000  Ry
     convergence threshold     =      1.0E-06
     mixing beta               =       0.7000
     number of iterations used =            8  plain     mixing
     Exchange-correlation      = SLA PW PBX PBC ( 1  4  3  4 0 0)
     nstep                     =          150


     celldm(1)=   6.593632  celldm(2)=   0.000000  celldm(3)=   0.000000
     celldm(4)=   0.000000  celldm(5)=   0.000000  celldm(6)=   0.000000

     crystal axes: (cart. coord. in units of alat)
               a(1) = (   1.000000   0.000000   0.000000 )  
               a(2) = (  -0.500000   0.866015   0.000000 )  
               a(3) = (   0.000000   0.000000   1.596612 )  

     reciprocal axes: (cart. coord. in units 2 pi/alat)
               b(1) = (  1.000000  0.577357  0.000000 )  
               b(2) = (  0.000000  1.154714  0.000000 )  
               b(3) = (  0.000000  0.000000  0.626326 )  


     PseudoPot. # 1 for Gd read from file:
     /home/shaharpit/AcHProject/meam_fit/dft/qe_potentials/Gd.GGA-PBE-paw-v1.0.UPF
     MD5 check sum: 3e8e0d208da550914ae52eaf991d13de
     Pseudo is Projector augmented-wave + core cor, Zval = 18.0
     Generated using ATOMPAW code
     Shape of augmentation charge: BESSEL
     Using radial grid of 1110 points,  8 beta functions with: 
                l(1) =   0
[...]

     BFGS Geometry Optimization

     bfgs converged in   1 scf cycles and   0 bfgs steps
     (criteria: energy <  1.0E-04 Ry, force <  1.0E-03 Ry/Bohr)

     End of BFGS Geometry Optimization

     Final energy   =   -1366.9220262998 Ry
Begin final coordinates

ATOMIC_POSITIONS (crystal)
Gd       0.666700000   0.333300000   0.750000000
Gd       0.333300000   0.666700000   0.250000000
End final coordinates



     Writing output data file 2241.save

     total cpu time spent up to now is      450.2 secs

     End of self-consistent calculation

          k = 0.0000 0.0000 0.0000 (  2333 PWs)   bands (ev):

   -28.6509 -28.5145  -7.2677  -6.2450  -6.2450  -6.0758  -6.0756  -6.0270
     9.2891  11.9062  13.3626  13.4212  13.4693  13.5203  13.5215  13.5574
    13.5582  13.5817  13.5829  13.6163  13.6812  13.6822

          k = 0.0000 0.0000 0.1566 (  2400 PWs)   bands (ev):

   -28.6312 -28.5348  -7.1025  -6.2280  -6.2206  -6.2205  -6.1009  -6.1007
     9.8007  11.7981  13.3432  13.3905  13.4503  13.4916  13.4925  13.5307
    13.5316  13.5963  13.6251  13.6258  13.7299  13.7308

          k = 0.0000 0.0000-0.3132 (  2388 PWs)   bands (ev):

   -28.5833 -28.5833  -6.6828  -6.6828  -6.1611  -6.1611  -6.1610  -6.1610
    10.9854  10.9854  13.3059  13.3059  13.4902  13.4902  13.4911  13.4911
    13.5246  13.5246  13.7156  13.7156  13.7163  13.7163

          k = 0.0000 0.2887 0.0000 (  2367 PWs)   bands (ev):

   -28.5960 -28.4941  -7.0547  -6.6924  -6.5194  -6.3817  -6.1383  -6.1286
    10.8258  12.8612  13.3423  13.3723  13.3970  13.4548  13.5274  13.5704
    13.5910  13.5969  13.6204  13.6208  13.6254  13.6973

          k = 0.0000 0.2887 0.1566 (  2363 PWs)   bands (ev):

   -28.5812 -28.5092  -7.0131  -6.6621  -6.5523  -6.3469  -6.1749  -6.1748
    11.1584  12.8371  13.2420  13.3532  13.4235  13.4554  13.5228  13.5434
    13.5488  13.5903  13.6167  13.6225  13.6574  13.6882

          k = 0.0000 0.2887-0.3132 (  2374 PWs)   bands (ev):

   -28.5453 -28.5453  -6.8624  -6.8624  -6.3423  -6.3423  -6.2617  -6.2617
    12.0353  12.0353  13.2750  13.2750  13.4565  13.4565  13.5220  13.5220
    13.5493  13.5493  13.6015  13.6015  13.6832  13.6832

          k = 0.0000-0.5774 0.0000 (  2344 PWs)   bands (ev):

   -28.5293 -28.4847  -7.1222  -6.9084  -6.7337  -6.5050  -6.3362  -6.2088
    12.4161  12.4816  12.8641  13.4221  13.4767  13.4908  13.5220  13.5326
    13.5598  13.5732  13.6428  13.6436  13.7096  13.7119

          k = 0.0000-0.5774 0.1566 (  2362 PWs)   bands (ev):

   -28.5228 -28.4912  -7.1971  -7.0334  -6.5609  -6.4630  -6.2910  -6.2536
    11.9750  12.4988  13.3381  13.4056  13.4575  13.4918  13.5194  13.5337
    13.5398  13.5758  13.6285  13.6426  13.7073  13.7088

          k = 0.0000-0.5774-0.3132 (  2364 PWs)   bands (ev):

   -28.5070 -28.5070  -7.1894  -7.1894  -6.3597  -6.3597  -6.3428  -6.3428
    12.1127  12.1127  13.3288  13.3288  13.5015  13.5015  13.5127  13.5127
    13.5872  13.5872  13.6026  13.6026  13.6980  13.6980

          k = 0.2500 0.1443 0.0000 (  2367 PWs)   bands (ev):

   -28.5960 -28.4941  -7.0547  -6.6924  -6.5194  -6.3817  -6.1383  -6.1286
    10.8258  12.8612  13.3417  13.3721  13.3971  13.4551  13.5270  13.5703
    13.5916  13.5974  13.6201  13.6213  13.6252  13.6970

          k = 0.2500 0.1443 0.1566 (  2363 PWs)   bands (ev):

   -28.5812 -28.5092  -7.0131  -6.6621  -6.5522  -6.3469  -6.1749  -6.1748
    11.1584  12.8372  13.2420  13.3530  13.4230  13.4555  13.5226  13.5434
    13.5489  13.5905  13.6169  13.6225  13.6575  13.6881

          k = 0.2500 0.1443-0.3132 (  2374 PWs)   bands (ev):

   -28.5453 -28.5453  -6.8624  -6.8624  -6.3423  -6.3423  -6.2617  -6.2617
    12.0353  12.0353  13.2751  13.2751  13.4562  13.4562  13.5219  13.5219
    13.5493  13.5493  13.6016  13.6016  13.6833  13.6833

          k = 0.2500 0.4330 0.0000 (  2373 PWs)   bands (ev):

   -28.5297 -28.4843  -6.9412  -6.8441  -6.7405  -6.5901  -6.4054  -6.3287
    12.8571  12.9098  13.3918  13.3956  13.4221  13.4712  13.5200  13.5715
    13.5797  13.5941  13.6248  13.6788  13.6868  13.7067

          k = 0.2500 0.4330 0.1566 (  2362 PWs)   bands (ev):

   -28.5231 -28.4910  -7.0086  -6.9736  -6.6533  -6.5439  -6.4114  -6.2442
    12.7553  12.8874  13.3683  13.3828  13.4320  13.4493  13.4742  13.5444
    13.5704  13.5808  13.6110  13.6288  13.6919  13.7133

          k = 0.2500 0.4330-0.3132 (  2348 PWs)   bands (ev):

   -28.5070 -28.5070  -7.0523  -7.0523  -6.5994  -6.5994  -6.2584  -6.2584
    12.7639  12.7639  13.3273  13.3273  13.4459  13.4459  13.5080  13.5080
    13.5451  13.5451  13.6229  13.6229  13.7045  13.7045

          k =-0.5000-0.2887 0.0000 (  2344 PWs)   bands (ev):

   -28.5293 -28.4847  -7.1221  -6.9083  -6.7337  -6.5050  -6.3361  -6.2088
    12.4161  12.4816  12.8640  13.4223  13.4770  13.4905  13.5221  13.5320
    13.5590  13.5732  13.6434  13.6437  13.7098  13.7124

          k =-0.5000-0.2887 0.1566 (  2362 PWs)   bands (ev):

   -28.5228 -28.4912  -7.1970  -7.0334  -6.5609  -6.4630  -6.2910  -6.2536
    11.9750  12.4988  13.3380  13.4056  13.4579  13.4915  13.5192  13.5335
    13.5396  13.5754  13.6283  13.6430  13.7073  13.7089

          k =-0.5000-0.2887-0.3132 (  2364 PWs)   bands (ev):

   -28.5070 -28.5070  -7.1894  -7.1894  -6.3597  -6.3597  -6.3428  -6.3428
    12.1127  12.1127  13.3287  13.3287  13.5012  13.5012  13.5130  13.5130
    13.5872  13.5872  13.6021  13.6021  13.6984  13.6984

          k =-0.5000 0.0000 0.0000 (  2373 PWs)   bands (ev):

   -28.5298 -28.4843  -6.9413  -6.8440  -6.7407  -6.5900  -6.4053  -6.3285
    12.8569  12.9092  13.3922  13.3952  13.4218  13.4714  13.5192  13.5712
    13.5799  13.5939  13.6253  13.6787  13.6875  13.7070

          k =-0.5000 0.0000 0.1566 (  2362 PWs)   bands (ev):

   -28.5231 -28.4910  -7.0086  -6.9735  -6.6533  -6.5441  -6.4113  -6.2441
    12.7552  12.8873  13.3680  13.3831  13.4316  13.4491  13.4744  13.5435
    13.5702  13.5803  13.6115  13.6293  13.6919  13.7135

          k =-0.5000 0.0000-0.3132 (  2348 PWs)   bands (ev):

   -28.5070 -28.5070  -7.0521  -7.0521  -6.5995  -6.5995  -6.2584  -6.2584
    12.7641  12.7641  13.3269  13.3269  13.4458  13.4458  13.5081  13.5081
    13.5444  13.5444  13.6233  13.6233  13.7045  13.7045

          k =-0.2500 0.1443 0.0000 (  2367 PWs)   bands (ev):

   -28.5960 -28.4941  -7.0548  -6.6925  -6.5195  -6.3816  -6.1382  -6.1285
    10.8257  12.8609  13.3415  13.3720  13.3967  13.4547  13.5274  13.5707
    13.5920  13.5966  13.6198  13.6217  13.6247  13.6970

          k =-0.2500 0.1443-0.1566 (  2363 PWs)   bands (ev):

   -28.5812 -28.5092  -7.0131  -6.6621  -6.5524  -6.3468  -6.1749  -6.1747
    11.1584  12.8369  13.2418  13.3529  13.4229  13.4550  13.5230  13.5437
    13.5484  13.5908  13.6170  13.6222  13.6578  13.6879

          k =-0.2500 0.1443 0.3132 (  2374 PWs)   bands (ev):

   -28.5453 -28.5453  -6.8623  -6.8623  -6.3425  -6.3425  -6.2617  -6.2617
    12.0354  12.0354  13.2749  13.2749  13.4559  13.4559  13.5223  13.5223
    13.5489  13.5489  13.6017  13.6017  13.6831  13.6831

          k =-0.2500 0.4330 0.0000 (  2373 PWs)   bands (ev):

   -28.5298 -28.4843  -6.9413  -6.8441  -6.7407  -6.5900  -6.4053  -6.3285
    12.8570  12.9093  13.3920  13.3954  13.4217  13.4714  13.5191  13.5717
    13.5799  13.5941  13.6249  13.6786  13.6872  13.7072

          k =-0.2500 0.4330-0.1566 (  2362 PWs)   bands (ev):

   -28.5231 -28.4910  -7.0086  -6.9736  -6.6533  -6.5441  -6.4113  -6.2441
    12.7552  12.8872  13.3680  13.3829  13.4319  13.4491  13.4746  13.5437
    13.5706  13.5804  13.6113  13.6292  13.6918  13.7133

          k =-0.2500 0.4330 0.3132 (  2348 PWs)   bands (ev):

   -28.5070 -28.5070  -7.0522  -7.0522  -6.5994  -6.5994  -6.2584  -6.2584
    12.7640  12.7640  13.3270  13.3270  13.4458  13.4458  13.5085  13.5085
    13.5445  13.5445  13.6232  13.6232  13.7045  13.7045

          k = 0.5000-0.2887 0.0000 (  2344 PWs)   bands (ev):

   -28.5294 -28.4847  -7.1223  -6.9084  -6.7342  -6.5050  -6.3357  -6.2087
    12.4155  12.4816  12.8630  13.4217  13.4764  13.4903  13.5227  13.5320
    13.5588  13.5725  13.6436  13.6438  13.7096  13.7123

          k = 0.5000-0.2887-0.1566 (  2362 PWs)   bands (ev):

   -28.5228 -28.4912  -7.1971  -7.0333  -6.5613  -6.4629  -6.2908  -6.2535
    11.9748  12.4990  13.3374  13.4052  13.4572  13.4913  13.5189  13.5331
    13.5406  13.5751  13.6284  13.6436  13.7081  13.7090

          k = 0.5000-0.2887 0.3132 (  2364 PWs)   bands (ev):

   -28.5070 -28.5070  -7.1893  -7.1893  -6.3596  -6.3596  -6.3429  -6.3429
    12.1130  12.1130  13.3282  13.3282  13.5009  13.5009  13.5123  13.5123
    13.5881  13.5881  13.6022  13.6022  13.6988  13.6988

     the Fermi energy is    13.6068 ev

!    total energy              =   -1366.92202630 Ry
     Harris-Foulkes estimate   =   -1366.92202728 Ry
     estimated scf accuracy    <       0.00000052 Ry

     total all-electron energy =     -1366.922026 Ry

     The total energy is the sum of the following terms:

     one-electron contribution =    -191.81659995 Ry
     hartree contribution      =     122.97511304 Ry
     xc contribution           =     -45.22708490 Ry
     ewald contribution        =    -320.97642826 Ry
     one-center paw contrib.   =    -931.83687088 Ry
     smearing contrib. (-TS)   =      -0.04015536 Ry

     convergence has been achieved in  55 iterations


     total cpu time spent up to now is      450.4 secs

     End of self-consistent calculation

          k = 0.0000 0.0000 0.0000 (  2333 PWs)   bands (ev):

   -28.6509 -28.5145  -7.2677  -6.2450  -6.2450  -6.0758  -6.0756  -6.0270
     9.2891  11.9062  13.3626  13.4212  13.4693  13.5203  13.5215  13.5574
    13.5582  13.5817  13.5829  13.6163  13.6812  13.6822

          k = 0.0000 0.0000 0.1566 (  2400 PWs)   bands (ev):

   -28.6312 -28.5348  -7.1025  -6.2280  -6.2206  -6.2205  -6.1009  -6.1007
     9.8007  11.7981  13.3432  13.3905  13.4503  13.4916  13.4925  13.5307
    13.5316  13.5963  13.6251  13.6258  13.7299  13.7308

          k = 0.0000 0.0000-0.3132 (  2388 PWs)   bands (ev):

   -28.5833 -28.5833  -6.6828  -6.6828  -6.1611  -6.1611  -6.1610  -6.1610
    10.9854  10.9854  13.3059  13.3059  13.4902  13.4902  13.4911  13.4911
    13.5246  13.5246  13.7156  13.7156  13.7163  13.7163

          k = 0.0000 0.2887 0.0000 (  2367 PWs)   bands (ev):

   -28.5960 -28.4941  -7.0547  -6.6924  -6.5194  -6.3817  -6.1383  -6.1286
    10.8258  12.8612  13.3423  13.3723  13.3970  13.4548  13.5274  13.5704
    13.5910  13.5969  13.6204  13.6208  13.6254  13.6973

          k = 0.0000 0.2887 0.1566 (  2363 PWs)   bands (ev):

   -28.5812 -28.5092  -7.0131  -6.6621  -6.5523  -6.3469  -6.1749  -6.1748
    11.1584  12.8371  13.2420  13.3532  13.4235  13.4554  13.5228  13.5434
    13.5488  13.5903  13.6167  13.6225  13.6574  13.6882

          k = 0.0000 0.2887-0.3132 (  2374 PWs)   bands (ev):

   -28.5453 -28.5453  -6.8624  -6.8624  -6.3423  -6.3423  -6.2617  -6.2617
    12.0353  12.0353  13.2750  13.2750  13.4565  13.4565  13.5220  13.5220
    13.5493  13.5493  13.6015  13.6015  13.6832  13.6832

          k = 0.0000-0.5774 0.0000 (  2344 PWs)   bands (ev):

   -28.5293 -28.4847  -7.1222  -6.9084  -6.7337  -6.5050  -6.3362  -6.2088
    12.4161  12.4816  12.8641  13.4221  13.4767  13.4908  13.5220  13.5326
    13.5598  13.5732  13.6428  13.6436  13.7096  13.7119

          k = 0.0000-0.5774 0.1566 (  2362 PWs)   bands (ev):

   -28.5228 -28.4912  -7.1971  -7.0334  -6.5609  -6.4630  -6.2910  -6.2536
    11.9750  12.4988  13.3381  13.4056  13.4575  13.4918  13.5194  13.5337
    13.5398  13.5758  13.6285  13.6426  13.7073  13.7088

          k = 0.0000-0.5774-0.3132 (  2364 PWs)   bands (ev):

   -28.5070 -28.5070  -7.1894  -7.1894  -6.3597  -6.3597  -6.3428  -6.3428
    12.1127  12.1127  13.3288  13.3288  13.5015  13.5015  13.5127  13.5127
    13.5872  13.5872  13.6026  13.6026  13.6980  13.6980

          k = 0.2500 0.1443 0.0000 (  2367 PWs)   bands (ev):

   -28.5960 -28.4941  -7.0547  -6.6924  -6.5194  -6.3817  -6.1383  -6.1286
    10.8258  12.8612  13.3417  13.3721  13.3971  13.4551  13.5270  13.5703
    13.5916  13.5974  13.6201  13.6213  13.6252  13.6970

          k = 0.2500 0.1443 0.1566 (  2363 PWs)   bands (ev):

   -28.5812 -28.5092  -7.0131  -6.6621  -6.5522  -6.3469  -6.1749  -6.1748
    11.1584  12.8372  13.2420  13.3530  13.4230  13.4555  13.5226  13.5434
    13.5489  13.5905  13.6169  13.6225  13.6575  13.6881

          k = 0.2500 0.1443-0.3132 (  2374 PWs)   bands (ev):

   -28.5453 -28.5453  -6.8624  -6.8624  -6.3423  -6.3423  -6.2617  -6.2617
    12.0353  12.0353  13.2751  13.2751  13.4562  13.4562  13.5219  13.5219
    13.5493  13.5493  13.6016  13.6016  13.6833  13.6833

          k = 0.2500 0.4330 0.0000 (  2373 PWs)   bands (ev):

   -28.5297 -28.4843  -6.9412  -6.8441  -6.7405  -6.5901  -6.4054  -6.3287
    12.8571  12.9098  13.3918  13.3956  13.4221  13.4712  13.5200  13.5715
    13.5797  13.5941  13.6248  13.6788  13.6868  13.7067

          k = 0.2500 0.4330 0.1566 (  2362 PWs)   bands (ev):

   -28.5231 -28.4910  -7.0086  -6.9736  -6.6533  -6.5439  -6.4114  -6.2442
    12.7553  12.8874  13.3683  13.3828  13.4320  13.4493  13.4742  13.5444
    13.5704  13.5808  13.6110  13.6288  13.6919  13.7133

          k = 0.2500 0.4330-0.3132 (  2348 PWs)   bands (ev):

   -28.5070 -28.5070  -7.0523  -7.0523  -6.5994  -6.5994  -6.2584  -6.2584
    12.7639  12.7639  13.3273  13.3273  13.4459  13.4459  13.5080  13.5080
    13.5451  13.5451  13.6229  13.6229  13.7045  13.7045

          k =-0.5000-0.2887 0.0000 (  2344 PWs)   bands (ev):

   -28.5293 -28.4847  -7.1221  -6.9083  -6.7337  -6.5050  -6.3361  -6.2088
    12.4161  12.4816  12.8640  13.4223  13.4770  13.4905  13.5221  13.5320
    13.5590  13.5732  13.6434  13.6437  13.7098  13.7124

          k =-0.5000-0.2887 0.1566 (  2362 PWs)   bands (ev):

   -28.5228 -28.4912  -7.1970  -7.0334  -6.5609  -6.4630  -6.2910  -6.2536
    11.9750  12.4988  13.3380  13.4056  13.4579  13.4915  13.5192  13.5335
    13.5396  13.5754  13.6283  13.6430  13.7073  13.7089

          k =-0.5000-0.2887-0.3132 (  2364 PWs)   bands (ev):

   -28.5070 -28.5070  -7.1894  -7.1894  -6.3597  -6.3597  -6.3428  -6.3428
    12.1127  12.1127  13.3287  13.3287  13.5012  13.5012  13.5130  13.5130
    13.5872  13.5872  13.6021  13.6021  13.6984  13.6984

          k =-0.5000 0.0000 0.0000 (  2373 PWs)   bands (ev):

   -28.5298 -28.4843  -6.9413  -6.8440  -6.7407  -6.5900  -6.4053  -6.3285
    12.8569  12.9092  13.3922  13.3952  13.4218  13.4714  13.5192  13.5712
    13.5799  13.5939  13.6253  13.6787  13.6875  13.7070

          k =-0.5000 0.0000 0.1566 (  2362 PWs)   bands (ev):

   -28.5231 -28.4910  -7.0086  -6.9735  -6.6533  -6.5441  -6.4113  -6.2441
    12.7552  12.8873  13.3680  13.3831  13.4316  13.4491  13.4744  13.5435
    13.5702  13.5803  13.6115  13.6293  13.6919  13.7135

          k =-0.5000 0.0000-0.3132 (  2348 PWs)   bands (ev):

   -28.5070 -28.5070  -7.0521  -7.0521  -6.5995  -6.5995  -6.2584  -6.2584
    12.7641  12.7641  13.3269  13.3269  13.4458  13.4458  13.5081  13.5081
    13.5444  13.5444  13.6233  13.6233  13.7045  13.7045

          k =-0.2500 0.1443 0.0000 (  2367 PWs)   bands (ev):

   -28.5960 -28.4941  -7.0548  -6.6925  -6.5195  -6.3816  -6.1382  -6.1285
    10.8257  12.8609  13.3415  13.3720  13.3967  13.4547  13.5274  13.5707
    13.5920  13.5966  13.6198  13.6217  13.6247  13.6970

          k =-0.2500 0.1443-0.1566 (  2363 PWs)   bands (ev):

   -28.5812 -28.5092  -7.0131  -6.6621  -6.5524  -6.3468  -6.1749  -6.1747
    11.1584  12.8369  13.2418  13.3529  13.4229  13.4550  13.5230  13.5437
    13.5484  13.5908  13.6170  13.6222  13.6578  13.6879

          k =-0.2500 0.1443 0.3132 (  2374 PWs)   bands (ev):

   -28.5453 -28.5453  -6.8623  -6.8623  -6.3425  -6.3425  -6.2617  -6.2617
    12.0354  12.0354  13.2749  13.2749  13.4559  13.4559  13.5223  13.5223
    13.5489  13.5489  13.6017  13.6017  13.6831  13.6831

          k =-0.2500 0.4330 0.0000 (  2373 PWs)   bands (ev):

   -28.5298 -28.4843  -6.9413  -6.8441  -6.7407  -6.5900  -6.4053  -6.3285
    12.8570  12.9093  13.3920  13.3954  13.4217  13.4714  13.5191  13.5717
    13.5799  13.5941  13.6249  13.6786  13.6872  13.7072

          k =-0.2500 0.4330-0.1566 (  2362 PWs)   bands (ev):

   -28.5231 -28.4910  -7.0086  -6.9736  -6.6533  -6.5441  -6.4113  -6.2441
    12.7552  12.8872  13.3680  13.3829  13.4319  13.4491  13.4746  13.5437
    13.5706  13.5804  13.6113  13.6292  13.6918  13.7133

          k =-0.2500 0.4330 0.3132 (  2348 PWs)   bands (ev):

   -28.5070 -28.5070  -7.0522  -7.0522  -6.5994  -6.5994  -6.2584  -6.2584
    12.7640  12.7640  13.3270  13.3270  13.4458  13.4458  13.5085  13.5085
    13.5445  13.5445  13.6232  13.6232  13.7045  13.7045

          k = 0.5000-0.2887 0.0000 (  2344 PWs)   bands (ev):

   -28.5294 -28.4847  -7.1223  -6.9084  -6.7342  -6.5050  -6.3357  -6.2087
    12.4155  12.4816  12.8630  13.4217  13.4764  13.4903  13.5227  13.5320
    13.5588  13.5725  13.6436  13.6438  13.7096  13.7123

          k = 0.5000-0.2887-0.1566 (  2362 PWs)   bands (ev):

   -28.5228 -28.4912  -7.1971  -7.0333  -6.5613  -6.4629  -6.2908  -6.2535
    11.9748  12.4990  13.3374  13.4052  13.4572  13.4913  13.5189  13.5331
    13.5406  13.5751  13.6284  13.6436  13.7081  13.7090

          k = 0.5000-0.2887 0.3132 (  2364 PWs)   bands (ev):

   -28.5070 -28.5070  -7.1893  -7.1893  -6.3596  -6.3596  -6.3429  -6.3429
    12.1130  12.1130  13.3282  13.3282  13.5009  13.5009  13.5123  13.5123
    13.5881  13.5881  13.6022  13.6022  13.6988  13.6988

     the Fermi energy is    13.6068 ev

!    total energy              =   -1366.92202630 Ry
     Harris-Foulkes estimate   =   -1366.92202728 Ry
     estimated scf accuracy    <       0.00000052 Ry

     total all-electron energy =     -1366.922026 Ry

     The total energy is the sum of the following terms:

     one-electron contribution =    -191.81659995 Ry
     hartree contribution      =     122.97511304 Ry
     xc contribution           =     -45.22708490 Ry
     ewald contribution        =    -320.97642826 Ry
     one-center paw contrib.   =    -931.83687088 Ry
     smearing contrib. (-TS)   =      -0.04015536 Ry

     convergence has been achieved in  55 iterations
     Forces acting on atoms (cartesian axes, Ry/au):

     atom    1 type  1   force =    -0.00018019    0.00013163    0.00000000
     atom    2 type  1   force =     0.00018019   -0.00013163    0.00000000

     Total force =     0.000316     Total SCF correction =     0.000457
     SCF correction compared to forces is large: reduce conv_thr to get better values

     Forces acting on atoms (cartesian axes, Ry/au):

     atom    1 type  1   force =    -0.00018019    0.00013163    0.00000000
     atom    2 type  1   force =     0.00018019   -0.00013163    0.00000000

     Total force =     0.000316     Total SCF correction =     0.000457
     SCF correction compared to forces is large: reduce conv_thr to get better values

     BFGS Geometry Optimization

     BFGS Geometry Optimization

     bfgs converged in   1 scf cycles and   0 bfgs steps
     (criteria: energy <  1.0E-04 Ry, force <  1.0E-03 Ry/Bohr)


     bfgs converged in   1 scf cycles and   0 bfgs steps
     (criteria: energy <  1.0E-04 Ry, force <  1.0E-03 Ry/Bohr)

     End of BFGS Geometry Optimization

     Final energy   =   -1366.9220262998 Ry
     End of BFGS Geometry Optimization

     Final energy   =   -1366.9220262998 Ry
Begin final coordinates

ATOMIC_POSITIONS (crystal)
Gd       0.666700000   0.333300000   0.750000000
Begin final coordinates

ATOMIC_POSITIONS (crystal)
Gd       0.666700000   0.333300000   0.750000000
Gd       0.333300000   0.666700000   0.250000000
End final coordinates


Gd       0.333300000   0.666700000   0.250000000
End final coordinates



     Writing output data file 2241.save

     Writing output data file 2241.save
