
     Program PWSCF v.6.1 (svn rev. 13369) starts on  3Jul2022 at 12:25:51 

     This program is part of the open-source Quantum ESPRESSO suite
     for quantum simulation of materials; please cite
         "P. Giannozzi et al., J. Phys.:Condens. Matter 21 395502 (2009);
          URL http://www.quantum-espresso.org", 
     in publications or presentations arising from this work. More details at
     http://www.quantum-espresso.org/quote

     Parallel version (MPI), running on     1 processors

     Program PWSCF v.6.1 (svn rev. 13369) starts on  3Jul2022 at 12:25:51 

     This program is part of the open-source Quantum ESPRESSO suite
     for quantum simulation of materials; please cite
         "P. Giannozzi et al., J. Phys.:Condens. Matter 21 395502 (2009);
          URL http://www.quantum-espresso.org", 
     in publications or presentations arising from this work. More details at
     http://www.quantum-espresso.org/quote

     Parallel version (MPI), running on     1 processors

     Program PWSCF v.6.1 (svn rev. 13369) starts on  3Jul2022 at 12:25:51 

     This program is part of the open-source Quantum ESPRESSO suite
     for quantum simulation of materials; please cite
         "P. Giannozzi et al., J. Phys.:Condens. Matter 21 395502 (2009);
          URL http://www.quantum-espresso.org", 
     in publications or presentations arising from this work. More details at
     http://www.quantum-espresso.org/quote

     Parallel version (MPI), running on     1 processors

     Program PWSCF v.6.1 (svn rev. 13369) starts on  3Jul2022 at 12:25:51 

     This program is part of the open-source Quantum ESPRESSO suite
     for quantum simulation of materials; please cite
         "P. Giannozzi et al., J. Phys.:Condens. Matter 21 395502 (2009);
          URL http://www.quantum-espresso.org", 
     in publications or presentations arising from this work. More details at
     http://www.quantum-espresso.org/quote

     Parallel version (MPI), running on     1 processors

     Program PWSCF v.6.1 (svn rev. 13369) starts on  3Jul2022 at 12:25:51 

     This program is part of the open-source Quantum ESPRESSO suite
     for quantum simulation of materials; please cite
         "P. Giannozzi et al., J. Phys.:Condens. Matter 21 395502 (2009);
          URL http://www.quantum-espresso.org", 
     in publications or presentations arising from this work. More details at
     http://www.quantum-espresso.org/quote

     Parallel version (MPI), running on     1 processors

     Program PWSCF v.6.1 (svn rev. 13369) starts on  3Jul2022 at 12:25:51 

     This program is part of the open-source Quantum ESPRESSO suite
     for quantum simulation of materials; please cite
         "P. Giannozzi et al., J. Phys.:Condens. Matter 21 395502 (2009);
          URL http://www.quantum-espresso.org", 
     in publications or presentations arising from this work. More details at
     http://www.quantum-espresso.org/quote

     Parallel version (MPI), running on     1 processors

     Program PWSCF v.6.1 (svn rev. 13369) starts on  3Jul2022 at 12:25:51 

     This program is part of the open-source Quantum ESPRESSO suite
     for quantum simulation of materials; please cite
         "P. Giannozzi et al., J. Phys.:Condens. Matter 21 395502 (2009);
          URL http://www.quantum-espresso.org", 
     in publications or presentations arising from this work. More details at
     http://www.quantum-espresso.org/quote

     Parallel version (MPI), running on     1 processors

     Program PWSCF v.6.1 (svn rev. 13369) starts on  3Jul2022 at 12:25:51 

     This program is part of the open-source Quantum ESPRESSO suite
     for quantum simulation of materials; please cite
         "P. Giannozzi et al., J. Phys.:Condens. Matter 21 395502 (2009);
          URL http://www.quantum-espresso.org", 
     in publications or presentations arising from this work. More details at
     http://www.quantum-espresso.org/quote

     Parallel version (MPI), running on     1 processors

     Program PWSCF v.6.1 (svn rev. 13369) starts on  3Jul2022 at 12:25:51 

     This program is part of the open-source Quantum ESPRESSO suite
     for quantum simulation of materials; please cite
         "P. Giannozzi et al., J. Phys.:Condens. Matter 21 395502 (2009);
          URL http://www.quantum-espresso.org", 
     in publications or presentations arising from this work. More details at
     http://www.quantum-espresso.org/quote

     Parallel version (MPI), running on     1 processors

     Program PWSCF v.6.1 (svn rev. 13369) starts on  3Jul2022 at 12:25:51 

     This program is part of the open-source Quantum ESPRESSO suite
     for quantum simulation of materials; please cite
         "P. Giannozzi et al., J. Phys.:Condens. Matter 21 395502 (2009);
          URL http://www.quantum-espresso.org", 
     in publications or presentations arising from this work. More details at
     http://www.quantum-espresso.org/quote

     Parallel version (MPI), running on     1 processors

     Program PWSCF v.6.1 (svn rev. 13369) starts on  3Jul2022 at 12:25:51 

     This program is part of the open-source Quantum ESPRESSO suite
     for quantum simulation of materials; please cite
         "P. Giannozzi et al., J. Phys.:Condens. Matter 21 395502 (2009);
          URL http://www.quantum-espresso.org", 
     in publications or presentations arising from this work. More details at
     http://www.quantum-espresso.org/quote

     Parallel version (MPI), running on     1 processors

     Program PWSCF v.6.1 (svn rev. 13369) starts on  3Jul2022 at 12:25:51 

     This program is part of the open-source Quantum ESPRESSO suite
     for quantum simulation of materials; please cite
         "P. Giannozzi et al., J. Phys.:Condens. Matter 21 395502 (2009);
          URL http://www.quantum-espresso.org", 
     in publications or presentations arising from this work. More details at
     http://www.quantum-espresso.org/quote

     Parallel version (MPI), running on     1 processors

     Program PWSCF v.6.1 (svn rev. 13369) starts on  3Jul2022 at 12:25:51 

     This program is part of the open-source Quantum ESPRESSO suite
     for quantum simulation of materials; please cite
         "P. Giannozzi et al., J. Phys.:Condens. Matter 21 395502 (2009);
          URL http://www.quantum-espresso.org", 
     in publications or presentations arising from this work. More details at
     http://www.quantum-espresso.org/quote

     Parallel version (MPI), running on     1 processors

     Program PWSCF v.6.1 (svn rev. 13369) starts on  3Jul2022 at 12:25:51 

     This program is part of the open-source Quantum ESPRESSO suite
     for quantum simulation of materials; please cite
         "P. Giannozzi et al., J. Phys.:Condens. Matter 21 395502 (2009);
          URL http://www.quantum-espresso.org", 
     in publications or presentations arising from this work. More details at
     http://www.quantum-espresso.org/quote

     Parallel version (MPI), running on     1 processors

     Program PWSCF v.6.1 (svn rev. 13369) starts on  3Jul2022 at 12:25:51 

     This program is part of the open-source Quantum ESPRESSO suite
     for quantum simulation of materials; please cite
         "P. Giannozzi et al., J. Phys.:Condens. Matter 21 395502 (2009);
          URL http://www.quantum-espresso.org", 
     in publications or presentations arising from this work. More details at
     http://www.quantum-espresso.org/quote

     Parallel version (MPI), running on     1 processors

     Program PWSCF v.6.1 (svn rev. 13369) starts on  3Jul2022 at 12:25:51 

     This program is part of the open-source Quantum ESPRESSO suite
     for quantum simulation of materials; please cite
         "P. Giannozzi et al., J. Phys.:Condens. Matter 21 395502 (2009);
          URL http://www.quantum-espresso.org", 
     in publications or presentations arising from this work. More details at
     http://www.quantum-espresso.org/quote

     Parallel version (MPI), running on     1 processors
     Reading input from ./Gd_0.8.in
     Reading input from ./Gd_0.8.in
     Reading input from ./Gd_0.8.in
     Reading input from ./Gd_0.8.in
     Reading input from ./Gd_0.8.in
     Reading input from ./Gd_0.8.in
     Reading input from ./Gd_0.8.in
     Reading input from ./Gd_0.8.in
     Reading input from ./Gd_0.8.in
     Reading input from ./Gd_0.8.in
     Reading input from ./Gd_0.8.in
     Reading input from ./Gd_0.8.in
     Reading input from ./Gd_0.8.in
     Reading input from ./Gd_0.8.in
     Reading input from ./Gd_0.8.in
     Reading input from ./Gd_0.8.in
Warning: card &CELL ignored
Warning: card / ignored
Warning: card H 1.00794 H.PBE-RRKJUS_PSL.1.0.0.UPF ignored
Warning: card &CELL ignored
Warning: card / ignored
Warning: card H 1.00794 H.PBE-RRKJUS_PSL.1.0.0.UPF ignored
Warning: card &CELL ignored
Warning: card / ignored
Warning: card &CELL ignored
Warning: card / ignored
Warning: card H 1.00794 H.PBE-RRKJUS_PSL.1.0.0.UPF ignored
Warning: card &CELL ignored
Warning: card / ignored
Warning: card H 1.00794 H.PBE-RRKJUS_PSL.1.0.0.UPF ignored
Warning: card H 1.00794 H.PBE-RRKJUS_PSL.1.0.0.UPF ignored
Warning: card &CELL ignored
Warning: card / ignored
Warning: card H 1.00794 H.PBE-RRKJUS_PSL.1.0.0.UPF ignored
Warning: card &CELL ignored
Warning: card / ignored
Warning: card H 1.00794 H.PBE-RRKJUS_PSL.1.0.0.UPF ignored
Warning: card &CELL ignored
Warning: card / ignored
Warning: card &CELL ignored
Warning: card / ignored
Warning: card H 1.00794 H.PBE-RRKJUS_PSL.1.0.0.UPF ignored
Warning: card H 1.00794 H.PBE-RRKJUS_PSL.1.0.0.UPF ignored
Warning: card &CELL ignored
Warning: card / ignored
Warning: card &CELL ignored
Warning: card / ignored
Warning: card H 1.00794 H.PBE-RRKJUS_PSL.1.0.0.UPF ignored
Warning: card H 1.00794 H.PBE-RRKJUS_PSL.1.0.0.UPF ignored
Warning: card &CELL ignored
Warning: card / ignored
Warning: card H 1.00794 H.PBE-RRKJUS_PSL.1.0.0.UPF ignored
Warning: card &CELL ignored
Warning: card / ignored
Warning: card H 1.00794 H.PBE-RRKJUS_PSL.1.0.0.UPF ignored
Warning: card &CELL ignored
Warning: card / ignored
Warning: card &CELL ignored
Warning: card / ignored
Warning: card H 1.00794 H.PBE-RRKJUS_PSL.1.0.0.UPF ignored
Warning: card H 1.00794 H.PBE-RRKJUS_PSL.1.0.0.UPF ignored

     Current dimensions of program PWSCF are:
     Max number of different atomic species (ntypx) = 10
     Max number of k-points (npk) =  40000
     Max angular momentum in pseudopotentials (lmaxx) =  3

     Current dimensions of program PWSCF are:
     Max number of different atomic species (ntypx) = 10
     Max number of k-points (npk) =  40000
     Max angular momentum in pseudopotentials (lmaxx) =  3

     Current dimensions of program PWSCF are:
     Max number of different atomic species (ntypx) = 10
     Max number of k-points (npk) =  40000
     Max angular momentum in pseudopotentials (lmaxx) =  3

     Current dimensions of program PWSCF are:
     Max number of different atomic species (ntypx) = 10
     Max number of k-points (npk) =  40000
     Max angular momentum in pseudopotentials (lmaxx) =  3

     Current dimensions of program PWSCF are:
     Max number of different atomic species (ntypx) = 10
     Max number of k-points (npk) =  40000
     Max angular momentum in pseudopotentials (lmaxx) =  3

     Current dimensions of program PWSCF are:
     Max number of different atomic species (ntypx) = 10
     Max number of k-points (npk) =  40000
     Max angular momentum in pseudopotentials (lmaxx) =  3

     Current dimensions of program PWSCF are:
     Max number of different atomic species (ntypx) = 10
     Max number of k-points (npk) =  40000
     Max angular momentum in pseudopotentials (lmaxx) =  3

     Current dimensions of program PWSCF are:
     Max number of different atomic species (ntypx) = 10
     Max number of k-points (npk) =  40000
     Max angular momentum in pseudopotentials (lmaxx) =  3

     Current dimensions of program PWSCF are:
     Max number of different atomic species (ntypx) = 10
     Max number of k-points (npk) =  40000
     Max angular momentum in pseudopotentials (lmaxx) =  3

     Current dimensions of program PWSCF are:
     Max number of different atomic species (ntypx) = 10
     Max number of k-points (npk) =  40000
     Max angular momentum in pseudopotentials (lmaxx) =  3

     Current dimensions of program PWSCF are:
     Max number of different atomic species (ntypx) = 10
     Max number of k-points (npk) =  40000
     Max angular momentum in pseudopotentials (lmaxx) =  3

     Current dimensions of program PWSCF are:
     Max number of different atomic species (ntypx) = 10
     Max number of k-points (npk) =  40000
     Max angular momentum in pseudopotentials (lmaxx) =  3

     Current dimensions of program PWSCF are:
     Max number of different atomic species (ntypx) = 10
     Max number of k-points (npk) =  40000
     Max angular momentum in pseudopotentials (lmaxx) =  3

     Current dimensions of program PWSCF are:
     Max number of different atomic species (ntypx) = 10
     Max number of k-points (npk) =  40000
     Max angular momentum in pseudopotentials (lmaxx) =  3

     Current dimensions of program PWSCF are:
     Max number of different atomic species (ntypx) = 10
     Max number of k-points (npk) =  40000
     Max angular momentum in pseudopotentials (lmaxx) =  3
Warning: card &CELL ignored
Warning: card / ignored
Warning: card H 1.00794 H.PBE-RRKJUS_PSL.1.0.0.UPF ignored

     Current dimensions of program PWSCF are:
     Max number of different atomic species (ntypx) = 10
     Max number of k-points (npk) =  40000
     Max angular momentum in pseudopotentials (lmaxx) =  3
               file Gd.GGA-PBE-paw-v1.0.UPF: wavefunction(s)  Xn Xn Xn Xn Xn Xn renormalized

     Subspace diagonalization in iterative solution of the eigenvalue problem:
     a serial algorithm will be used

               file Gd.GGA-PBE-paw-v1.0.UPF: wavefunction(s)  Xn Xn Xn Xn Xn Xn renormalized

     Subspace diagonalization in iterative solution of the eigenvalue problem:
     a serial algorithm will be used

               file Gd.GGA-PBE-paw-v1.0.UPF: wavefunction(s)  Xn Xn Xn Xn Xn Xn renormalized

     Subspace diagonalization in iterative solution of the eigenvalue problem:
     a serial algorithm will be used

               file Gd.GGA-PBE-paw-v1.0.UPF: wavefunction(s)  Xn Xn Xn Xn Xn Xn renormalized

     Subspace diagonalization in iterative solution of the eigenvalue problem:
     a serial algorithm will be used

               file Gd.GGA-PBE-paw-v1.0.UPF: wavefunction(s)  Xn Xn Xn Xn Xn Xn renormalized

     Subspace diagonalization in iterative solution of the eigenvalue problem:
     a serial algorithm will be used

               file Gd.GGA-PBE-paw-v1.0.UPF: wavefunction(s)  Xn Xn Xn Xn Xn Xn renormalized

     Subspace diagonalization in iterative solution of the eigenvalue problem:
     a serial algorithm will be used

               file Gd.GGA-PBE-paw-v1.0.UPF: wavefunction(s)  Xn Xn Xn Xn Xn Xn renormalized

     Subspace diagonalization in iterative solution of the eigenvalue problem:
     a serial algorithm will be used

               file Gd.GGA-PBE-paw-v1.0.UPF: wavefunction(s)  Xn Xn Xn Xn Xn Xn renormalized

     Subspace diagonalization in iterative solution of the eigenvalue problem:
     a serial algorithm will be used

               file Gd.GGA-PBE-paw-v1.0.UPF: wavefunction(s)  Xn Xn Xn Xn Xn Xn renormalized

     Subspace diagonalization in iterative solution of the eigenvalue problem:
     a serial algorithm will be used

               file Gd.GGA-PBE-paw-v1.0.UPF: wavefunction(s)  Xn Xn Xn Xn Xn Xn renormalized

     Subspace diagonalization in iterative solution of the eigenvalue problem:
     a serial algorithm will be used

               file Gd.GGA-PBE-paw-v1.0.UPF: wavefunction(s)  Xn Xn Xn Xn Xn Xn renormalized

     Subspace diagonalization in iterative solution of the eigenvalue problem:
     a serial algorithm will be used

 
     G-vector sticks info
     --------------------
     sticks:   dense  smooth     PW     G-vecs:    dense   smooth      PW
     Sum         559     559    187                16863    16863    3177
 


 
     G-vector sticks info
     --------------------
     sticks:   dense  smooth     PW     G-vecs:    dense   smooth      PW
     Sum         559     559    187                16863    16863    3177
 


     bravais-lattice index     =            0
     lattice parameter (alat)  =       6.3398  a.u.
     unit-cell volume          =     352.3410 (a.u.)^3
     number of atoms/cell      =            2
     number of atomic types    =            1
     number of electrons       =        36.00
     number of Kohn-Sham states=           22
     kinetic-energy cutoff     =      50.0000  Ry
     charge density cutoff     =     200.0000  Ry
     convergence threshold     =      1.0E-06
 
     G-vector sticks info
     --------------------
     sticks:   dense  smooth     PW     G-vecs:    dense   smooth      PW
     Sum         559     559    187                16863    16863    3177
 


     bravais-lattice index     =            0
     lattice parameter (alat)  =       6.3398  a.u.
     unit-cell volume          =     352.3410 (a.u.)^3
     number of atoms/cell      =            2
     number of atomic types    =            1
     number of electrons       =        36.00
     number of Kohn-Sham states=           22
     kinetic-energy cutoff     =      50.0000  Ry
     charge density cutoff     =     200.0000  Ry
     convergence threshold     =      1.0E-06
     mixing beta               =       0.7000
     number of iterations used =            8  plain     mixing
     Exchange-correlation      = SLA PW PBX PBC ( 1  4  3  4 0 0)
     nstep                     =          150

 
     G-vector sticks info
     --------------------
     sticks:   dense  smooth     PW     G-vecs:    dense   smooth      PW
     Sum         559     559    187                16863    16863    3177
 


     bravais-lattice index     =            0
     lattice parameter (alat)  =       6.3398  a.u.
     unit-cell volume          =     352.3410 (a.u.)^3
     number of atoms/cell      =            2
     number of atomic types    =            1
     number of electrons       =        36.00
     number of Kohn-Sham states=           22
     kinetic-energy cutoff     =      50.0000  Ry
     charge density cutoff     =     200.0000  Ry
     convergence threshold     =      1.0E-06
     mixing beta               =       0.7000
     number of iterations used =            8  plain     mixing
     Exchange-correlation      = SLA PW PBX PBC ( 1  4  3  4 0 0)
     nstep                     =          150

 
     G-vector sticks info
     --------------------
     sticks:   dense  smooth     PW     G-vecs:    dense   smooth      PW
     Sum         559     559    187                16863    16863    3177
 


     bravais-lattice index     =            0
     lattice parameter (alat)  =       6.3398  a.u.
     unit-cell volume          =     352.3410 (a.u.)^3
     number of atoms/cell      =            2
     number of atomic types    =            1
     number of electrons       =        36.00
     number of Kohn-Sham states=           22
     kinetic-energy cutoff     =      50.0000  Ry
     charge density cutoff     =     200.0000  Ry
     convergence threshold     =      1.0E-06
     mixing beta               =       0.7000
     number of iterations used =            8  plain     mixing
     Exchange-correlation      = SLA PW PBX PBC ( 1  4  3  4 0 0)
     nstep                     =          150


 
     G-vector sticks info
     --------------------
     sticks:   dense  smooth     PW     G-vecs:    dense   smooth      PW
     Sum         559     559    187                16863    16863    3177
 


     bravais-lattice index     =            0
     lattice parameter (alat)  =       6.3398  a.u.
     unit-cell volume          =     352.3410 (a.u.)^3
     number of atoms/cell      =            2
     number of atomic types    =            1
     number of electrons       =        36.00
     number of Kohn-Sham states=           22
     kinetic-energy cutoff     =      50.0000  Ry
     charge density cutoff     =     200.0000  Ry
     convergence threshold     =      1.0E-06
     mixing beta               =       0.7000
     number of iterations used =            8  plain     mixing
     Exchange-correlation      = SLA PW PBX PBC ( 1  4  3  4 0 0)
     nstep                     =          150


     celldm(1)=   6.339842  celldm(2)=   0.000000  celldm(3)=   0.000000
     celldm(4)=   0.000000  celldm(5)=   0.000000  celldm(6)=   0.000000

     crystal axes: (cart. coord. in units of alat)
 
     G-vector sticks info
     --------------------
     sticks:   dense  smooth     PW     G-vecs:    dense   smooth      PW
     Sum         559     559    187                16863    16863    3177
 


     bravais-lattice index     =            0
     lattice parameter (alat)  =       6.3398  a.u.
     unit-cell volume          =     352.3410 (a.u.)^3
     number of atoms/cell      =            2
     number of atomic types    =            1
     number of electrons       =        36.00
     number of Kohn-Sham states=           22
     kinetic-energy cutoff     =      50.0000  Ry
     charge density cutoff     =     200.0000  Ry
     convergence threshold     =      1.0E-06
     mixing beta               =       0.7000
     number of iterations used =            8  plain     mixing
     Exchange-correlation      = SLA PW PBX PBC ( 1  4  3  4 0 0)
     nstep                     =          150


     celldm(1)=   6.339842  celldm(2)=   0.000000  celldm(3)=   0.000000
     celldm(4)=   0.000000  celldm(5)=   0.000000  celldm(6)=   0.000000

     crystal axes: (cart. coord. in units of alat)
               a(1) = (   1.000000   0.000000   0.000000 )  
               a(2) = (  -0.499985   0.866017   0.000000 )  
               a(3) = (   0.000000   0.000000   1.596620 )  

 
     G-vector sticks info
     --------------------
     sticks:   dense  smooth     PW     G-vecs:    dense   smooth      PW
     Sum         559     559    187                16863    16863    3177
 


     bravais-lattice index     =            0
     lattice parameter (alat)  =       6.3398  a.u.
     unit-cell volume          =     352.3410 (a.u.)^3
     number of atoms/cell      =            2
     number of atomic types    =            1
     number of electrons       =        36.00
     number of Kohn-Sham states=           22
     kinetic-energy cutoff     =      50.0000  Ry
     charge density cutoff     =     200.0000  Ry
     convergence threshold     =      1.0E-06
     mixing beta               =       0.7000
     number of iterations used =            8  plain     mixing
     Exchange-correlation      = SLA PW PBX PBC ( 1  4  3  4 0 0)
     nstep                     =          150


     celldm(1)=   6.339842  celldm(2)=   0.000000  celldm(3)=   0.000000
     celldm(4)=   0.000000  celldm(5)=   0.000000  celldm(6)=   0.000000

     crystal axes: (cart. coord. in units of alat)
               a(1) = (   1.000000   0.000000   0.000000 )  
               a(2) = (  -0.499985   0.866017   0.000000 )  
               a(3) = (   0.000000   0.000000   1.596620 )  

     reciprocal axes: (cart. coord. in units 2 pi/alat)
 
     G-vector sticks info
     --------------------
     sticks:   dense  smooth     PW     G-vecs:    dense   smooth      PW
     Sum         559     559    187                16863    16863    3177
 


     bravais-lattice index     =            0
     lattice parameter (alat)  =       6.3398  a.u.
     unit-cell volume          =     352.3410 (a.u.)^3
     number of atoms/cell      =            2
     number of atomic types    =            1
     number of electrons       =        36.00
     number of Kohn-Sham states=           22
     kinetic-energy cutoff     =      50.0000  Ry
     charge density cutoff     =     200.0000  Ry
     convergence threshold     =      1.0E-06
     mixing beta               =       0.7000
     number of iterations used =            8  plain     mixing
     Exchange-correlation      = SLA PW PBX PBC ( 1  4  3  4 0 0)
     nstep                     =          150


     celldm(1)=   6.339842  celldm(2)=   0.000000  celldm(3)=   0.000000
     celldm(4)=   0.000000  celldm(5)=   0.000000  celldm(6)=   0.000000

     crystal axes: (cart. coord. in units of alat)
               a(1) = (   1.000000   0.000000   0.000000 )  
               a(2) = (  -0.499985   0.866017   0.000000 )  
               a(3) = (   0.000000   0.000000   1.596620 )  

     reciprocal axes: (cart. coord. in units 2 pi/alat)
               b(1) = (  1.000000  0.577339  0.000000 )  
               b(2) = (  0.000000  1.154712  0.000000 )  
               b(3) = (  0.000000  0.000000  0.626323 )  

 
     G-vector sticks info
     --------------------
     sticks:   dense  smooth     PW     G-vecs:    dense   smooth      PW
     Sum         559     559    187                16863    16863    3177
 


     bravais-lattice index     =            0
     lattice parameter (alat)  =       6.3398  a.u.
     unit-cell volume          =     352.3410 (a.u.)^3
     number of atoms/cell      =            2
     number of atomic types    =            1
     number of electrons       =        36.00
     number of Kohn-Sham states=           22
     kinetic-energy cutoff     =      50.0000  Ry
     charge density cutoff     =     200.0000  Ry
     convergence threshold     =      1.0E-06
     mixing beta               =       0.7000
     number of iterations used =            8  plain     mixing
     Exchange-correlation      = SLA PW PBX PBC ( 1  4  3  4 0 0)
     nstep                     =          150


     celldm(1)=   6.339842  celldm(2)=   0.000000  celldm(3)=   0.000000
     celldm(4)=   0.000000  celldm(5)=   0.000000  celldm(6)=   0.000000

     crystal axes: (cart. coord. in units of alat)
               a(1) = (   1.000000   0.000000   0.000000 )  
               a(2) = (  -0.499985   0.866017   0.000000 )  
               a(3) = (   0.000000   0.000000   1.596620 )  

     reciprocal axes: (cart. coord. in units 2 pi/alat)
               b(1) = (  1.000000  0.577339  0.000000 )  
               b(2) = (  0.000000  1.154712  0.000000 )  
               b(3) = (  0.000000  0.000000  0.626323 )  


 
     G-vector sticks info
     --------------------
     sticks:   dense  smooth     PW     G-vecs:    dense   smooth      PW
     Sum         559     559    187                16863    16863    3177
 


     bravais-lattice index     =            0
     lattice parameter (alat)  =       6.3398  a.u.
     unit-cell volume          =     352.3410 (a.u.)^3
     number of atoms/cell      =            2
     number of atomic types    =            1
     number of electrons       =        36.00
     number of Kohn-Sham states=           22
     kinetic-energy cutoff     =      50.0000  Ry
     charge density cutoff     =     200.0000  Ry
     convergence threshold     =      1.0E-06
     mixing beta               =       0.7000
     number of iterations used =            8  plain     mixing
     Exchange-correlation      = SLA PW PBX PBC ( 1  4  3  4 0 0)
     nstep                     =          150


     celldm(1)=   6.339842  celldm(2)=   0.000000  celldm(3)=   0.000000
     celldm(4)=   0.000000  celldm(5)=   0.000000  celldm(6)=   0.000000

     crystal axes: (cart. coord. in units of alat)
               a(1) = (   1.000000   0.000000   0.000000 )  
               a(2) = (  -0.499985   0.866017   0.000000 )  
               a(3) = (   0.000000   0.000000   1.596620 )  

     reciprocal axes: (cart. coord. in units 2 pi/alat)
               b(1) = (  1.000000  0.577339  0.000000 )  
               b(2) = (  0.000000  1.154712  0.000000 )  
               b(3) = (  0.000000  0.000000  0.626323 )  


     PseudoPot. # 1 for Gd read from file:
     /home/shaharpit/AcHProject/meam_fit/dft/qe_potentials/Gd.GGA-PBE-paw-v1.0.UPF
     MD5 check sum: 3e8e0d208da550914ae52eaf991d13de
     PseudoPot. # 1 for Gd read from file:
     /home/shaharpit/AcHProject/meam_fit/dft/qe_potentials/Gd.GGA-PBE-paw-v1.0.UPF
     MD5 check sum: 3e8e0d208da550914ae52eaf991d13de
     Pseudo is Projector augmented-wave + core cor, Zval = 18.0
     Generated using ATOMPAW code
     Shape of augmentation charge: BESSEL
     Using radial grid of 1110 points,  8 beta functions with: 
                l(1) =   0
                l(2) =   0
                l(3) =   1
                l(4) =   1
                l(5) =   2
                l(6) =   2
                l(7) =   3
                l(8) =   3
     Q(r) pseudized with 0 coefficients 


     atomic species   valence    mass     pseudopotential
        Gd            18.00   157.25000     Gd( 1.00)

      2 Sym. Ops., with inversion, found
          (note:  2 additional sym.ops. were found but ignored
           their fractional translations are incommensurate with FFT grid)


   Cartesian axes

     site n.     atom                  positions (alat units)
         1           Gd  tau(   1) = (   0.5000550   0.2886434   1.1974649  )
     bravais-lattice index     =            0
     lattice parameter (alat)  =       6.3398  a.u.
     unit-cell volume          =     352.3410 (a.u.)^3
     number of atoms/cell      =            2
     number of atomic types    =            1
     number of electrons       =        36.00
     number of Kohn-Sham states=           22
     kinetic-energy cutoff     =      50.0000  Ry
     charge density cutoff     =     200.0000  Ry
     convergence threshold     =      1.0E-06
     mixing beta               =       0.7000
     number of iterations used =            8  plain     mixing
     Exchange-correlation      = SLA PW PBX PBC ( 1  4  3  4 0 0)
     nstep                     =          150


     celldm(1)=   6.339842  celldm(2)=   0.000000  celldm(3)=   0.000000
     celldm(4)=   0.000000  celldm(5)=   0.000000  celldm(6)=   0.000000

     crystal axes: (cart. coord. in units of alat)
               a(1) = (   1.000000   0.000000   0.000000 )  
               a(2) = (  -0.499985   0.866017   0.000000 )  
               a(3) = (   0.000000   0.000000   1.596620 )  

     reciprocal axes: (cart. coord. in units 2 pi/alat)
               b(1) = (  1.000000  0.577339  0.000000 )  
               b(2) = (  0.000000  1.154712  0.000000 )  
               b(3) = (  0.000000  0.000000  0.626323 )  


     PseudoPot. # 1 for Gd read from file:
     /home/shaharpit/AcHProject/meam_fit/dft/qe_potentials/Gd.GGA-PBE-paw-v1.0.UPF
     MD5 check sum: 3e8e0d208da550914ae52eaf991d13de
     Pseudo is Projector augmented-wave + core cor, Zval = 18.0
     Generated using ATOMPAW code
     Shape of augmentation charge: BESSEL
     Using radial grid of 1110 points,  8 beta functions with: 
                l(1) =   0
                l(2) =   0
                l(3) =   1
                l(4) =   1
                l(5) =   2
                l(6) =   2
                l(7) =   3
                l(8) =   3
     Q(r) pseudized with 0 coefficients 


     atomic species   valence    mass     pseudopotential
        Gd            18.00   157.25000     Gd( 1.00)

      2 Sym. Ops., with inversion, found
          (note:  2 additional sym.ops. were found but ignored
     mixing beta               =       0.7000
     number of iterations used =            8  plain     mixing
     Exchange-correlation      = SLA PW PBX PBC ( 1  4  3  4 0 0)
     nstep                     =          150


     celldm(1)=   6.339842  celldm(2)=   0.000000  celldm(3)=   0.000000
     celldm(4)=   0.000000  celldm(5)=   0.000000  celldm(6)=   0.000000

     crystal axes: (cart. coord. in units of alat)
               a(1) = (   1.000000   0.000000   0.000000 )  
               a(2) = (  -0.499985   0.866017   0.000000 )  
               a(3) = (   0.000000   0.000000   1.596620 )  

     reciprocal axes: (cart. coord. in units 2 pi/alat)
               b(1) = (  1.000000  0.577339  0.000000 )  
               b(2) = (  0.000000  1.154712  0.000000 )  
               b(3) = (  0.000000  0.000000  0.626323 )  


     PseudoPot. # 1 for Gd read from file:
     /home/shaharpit/AcHProject/meam_fit/dft/qe_potentials/Gd.GGA-PBE-paw-v1.0.UPF
     MD5 check sum: 3e8e0d208da550914ae52eaf991d13de
     Pseudo is Projector augmented-wave + core cor, Zval = 18.0
     Generated using ATOMPAW code
     Shape of augmentation charge: BESSEL
     Using radial grid of 1110 points,  8 beta functions with: 
                l(1) =   0
                l(2) =   0
                l(3) =   1
                l(4) =   1
                l(5) =   2
                l(6) =   2
                l(7) =   3
                l(8) =   3
     Q(r) pseudized with 0 coefficients 


     atomic species   valence    mass     pseudopotential
        Gd            18.00   157.25000     Gd( 1.00)

      2 Sym. Ops., with inversion, found
          (note:  2 additional sym.ops. were found but ignored
           their fractional translations are incommensurate with FFT grid)


   Cartesian axes

     site n.     atom                  positions (alat units)
         1           Gd  tau(   1) = (   0.5000550   0.2886434   1.1974649  )
         2           Gd  tau(   2) = (  -0.0000401   0.5773734   0.3991550  )

     number of k points=    36  gaussian smearing, width (Ry)=  0.0100
                       cart. coord. in units 2pi/alat

     celldm(1)=   6.339842  celldm(2)=   0.000000  celldm(3)=   0.000000
     celldm(4)=   0.000000  celldm(5)=   0.000000  celldm(6)=   0.000000

     crystal axes: (cart. coord. in units of alat)
               a(1) = (   1.000000   0.000000   0.000000 )  
               a(2) = (  -0.499985   0.866017   0.000000 )  
               a(3) = (   0.000000   0.000000   1.596620 )  

     reciprocal axes: (cart. coord. in units 2 pi/alat)
               b(1) = (  1.000000  0.577339  0.000000 )  
               b(2) = (  0.000000  1.154712  0.000000 )  
               b(3) = (  0.000000  0.000000  0.626323 )  


     PseudoPot. # 1 for Gd read from file:
     /home/shaharpit/AcHProject/meam_fit/dft/qe_potentials/Gd.GGA-PBE-paw-v1.0.UPF
     MD5 check sum: 3e8e0d208da550914ae52eaf991d13de
     Pseudo is Projector augmented-wave + core cor, Zval = 18.0
     Generated using ATOMPAW code
     Shape of augmentation charge: BESSEL
     Using radial grid of 1110 points,  8 beta functions with: 
                l(1) =   0
                l(2) =   0
                l(3) =   1
                l(4) =   1
                l(5) =   2
                l(6) =   2
                l(7) =   3
                l(8) =   3
     Q(r) pseudized with 0 coefficients 


     atomic species   valence    mass     pseudopotential
        Gd            18.00   157.25000     Gd( 1.00)

      2 Sym. Ops., with inversion, found
          (note:  2 additional sym.ops. were found but ignored
           their fractional translations are incommensurate with FFT grid)


   Cartesian axes

     site n.     atom                  positions (alat units)
         1           Gd  tau(   1) = (   0.5000550   0.2886434   1.1974649  )
         2           Gd  tau(   2) = (  -0.0000401   0.5773734   0.3991550  )

     number of k points=    36  gaussian smearing, width (Ry)=  0.0100
                       cart. coord. in units 2pi/alat
        k(    1) = (   0.0000000   0.0000000   0.0000000), wk =   0.0312500
        k(    2) = (   0.0000000   0.0000000   0.1565808), wk =   0.0625000
        k(    3) = (   0.0000000   0.0000000  -0.3131616), wk =   0.0312500
        k(    4) = (   0.0000000   0.2886780   0.0000000), wk =   0.0625000
        k(    5) = (   0.0000000   0.2886780   0.1565808), wk =   0.0625000
        k(    6) = (   0.0000000   0.2886780  -0.3131616), wk =   0.0625000

     celldm(1)=   6.339842  celldm(2)=   0.000000  celldm(3)=   0.000000
     celldm(4)=   0.000000  celldm(5)=   0.000000  celldm(6)=   0.000000

     crystal axes: (cart. coord. in units of alat)
               a(1) = (   1.000000   0.000000   0.000000 )  
               a(2) = (  -0.499985   0.866017   0.000000 )  
               a(3) = (   0.000000   0.000000   1.596620 )  

     reciprocal axes: (cart. coord. in units 2 pi/alat)
               b(1) = (  1.000000  0.577339  0.000000 )  
               b(2) = (  0.000000  1.154712  0.000000 )  
               b(3) = (  0.000000  0.000000  0.626323 )  


     PseudoPot. # 1 for Gd read from file:
     /home/shaharpit/AcHProject/meam_fit/dft/qe_potentials/Gd.GGA-PBE-paw-v1.0.UPF
     MD5 check sum: 3e8e0d208da550914ae52eaf991d13de
     Pseudo is Projector augmented-wave + core cor, Zval = 18.0
     Generated using ATOMPAW code
     Shape of augmentation charge: BESSEL
     Using radial grid of 1110 points,  8 beta functions with: 
                l(1) =   0
                l(2) =   0
                l(3) =   1
                l(4) =   1
                l(5) =   2
                l(6) =   2
                l(7) =   3
                l(8) =   3
     Q(r) pseudized with 0 coefficients 


     atomic species   valence    mass     pseudopotential
        Gd            18.00   157.25000     Gd( 1.00)

      2 Sym. Ops., with inversion, found
          (note:  2 additional sym.ops. were found but ignored
           their fractional translations are incommensurate with FFT grid)


   Cartesian axes

     site n.     atom                  positions (alat units)
         1           Gd  tau(   1) = (   0.5000550   0.2886434   1.1974649  )
         2           Gd  tau(   2) = (  -0.0000401   0.5773734   0.3991550  )

     number of k points=    36  gaussian smearing, width (Ry)=  0.0100
                       cart. coord. in units 2pi/alat
        k(    1) = (   0.0000000   0.0000000   0.0000000), wk =   0.0312500
        k(    2) = (   0.0000000   0.0000000   0.1565808), wk =   0.0625000
        k(    3) = (   0.0000000   0.0000000  -0.3131616), wk =   0.0312500
        k(    4) = (   0.0000000   0.2886780   0.0000000), wk =   0.0625000
        k(    5) = (   0.0000000   0.2886780   0.1565808), wk =   0.0625000
        k(    6) = (   0.0000000   0.2886780  -0.3131616), wk =   0.0625000
        k(    7) = (   0.0000000  -0.5773560   0.0000000), wk =   0.0312500
        k(    8) = (   0.0000000  -0.5773560   0.1565808), wk =   0.0625000
     celldm(1)=   6.339842  celldm(2)=   0.000000  celldm(3)=   0.000000
     celldm(4)=   0.000000  celldm(5)=   0.000000  celldm(6)=   0.000000

     crystal axes: (cart. coord. in units of alat)
               a(1) = (   1.000000   0.000000   0.000000 )  
               a(2) = (  -0.499985   0.866017   0.000000 )  
               a(3) = (   0.000000   0.000000   1.596620 )  

     reciprocal axes: (cart. coord. in units 2 pi/alat)
               b(1) = (  1.000000  0.577339  0.000000 )  
               b(2) = (  0.000000  1.154712  0.000000 )  
               b(3) = (  0.000000  0.000000  0.626323 )  


     PseudoPot. # 1 for Gd read from file:
     /home/shaharpit/AcHProject/meam_fit/dft/qe_potentials/Gd.GGA-PBE-paw-v1.0.UPF
     MD5 check sum: 3e8e0d208da550914ae52eaf991d13de
     Pseudo is Projector augmented-wave + core cor, Zval = 18.0
     Generated using ATOMPAW code
     Shape of augmentation charge: BESSEL
     Using radial grid of 1110 points,  8 beta functions with: 
                l(1) =   0
                l(2) =   0
                l(3) =   1
                l(4) =   1
                l(5) =   2
                l(6) =   2
                l(7) =   3
                l(8) =   3
     Q(r) pseudized with 0 coefficients 


     atomic species   valence    mass     pseudopotential
        Gd            18.00   157.25000     Gd( 1.00)

      2 Sym. Ops., with inversion, found
          (note:  2 additional sym.ops. were found but ignored
           their fractional translations are incommensurate with FFT grid)


   Cartesian axes

     site n.     atom                  positions (alat units)
         1           Gd  tau(   1) = (   0.5000550   0.2886434   1.1974649  )
         2           Gd  tau(   2) = (  -0.0000401   0.5773734   0.3991550  )

     number of k points=    36  gaussian smearing, width (Ry)=  0.0100
                       cart. coord. in units 2pi/alat
        k(    1) = (   0.0000000   0.0000000   0.0000000), wk =   0.0312500
        k(    2) = (   0.0000000   0.0000000   0.1565808), wk =   0.0625000
        k(    3) = (   0.0000000   0.0000000  -0.3131616), wk =   0.0312500
        k(    4) = (   0.0000000   0.2886780   0.0000000), wk =   0.0625000
        k(    5) = (   0.0000000   0.2886780   0.1565808), wk =   0.0625000
        k(    6) = (   0.0000000   0.2886780  -0.3131616), wk =   0.0625000
        k(    7) = (   0.0000000  -0.5773560   0.0000000), wk =   0.0312500
        k(    8) = (   0.0000000  -0.5773560   0.1565808), wk =   0.0625000
        k(    9) = (   0.0000000  -0.5773560  -0.3131616), wk =   0.0312500
        k(   10) = (   0.2500000   0.1443347   0.0000000), wk =   0.0625000
        k(   11) = (   0.2500000   0.1443347   0.1565808), wk =   0.0625000
        k(   12) = (   0.2500000   0.1443347  -0.3131616), wk =   0.0625000
               a(1) = (   1.000000   0.000000   0.000000 )  
               a(2) = (  -0.499985   0.866017   0.000000 )  
               a(3) = (   0.000000   0.000000   1.596620 )  

     reciprocal axes: (cart. coord. in units 2 pi/alat)
               b(1) = (  1.000000  0.577339  0.000000 )  
               b(2) = (  0.000000  1.154712  0.000000 )  
               b(3) = (  0.000000  0.000000  0.626323 )  


     PseudoPot. # 1 for Gd read from file:
     /home/shaharpit/AcHProject/meam_fit/dft/qe_potentials/Gd.GGA-PBE-paw-v1.0.UPF
     MD5 check sum: 3e8e0d208da550914ae52eaf991d13de
     Pseudo is Projector augmented-wave + core cor, Zval = 18.0
     Generated using ATOMPAW code
     Shape of augmentation charge: BESSEL
     Using radial grid of 1110 points,  8 beta functions with: 
                l(1) =   0
                l(2) =   0
                l(3) =   1
                l(4) =   1
                l(5) =   2
                l(6) =   2
                l(7) =   3
                l(8) =   3
     Q(r) pseudized with 0 coefficients 


     atomic species   valence    mass     pseudopotential
        Gd            18.00   157.25000     Gd( 1.00)

      2 Sym. Ops., with inversion, found
          (note:  2 additional sym.ops. were found but ignored
           their fractional translations are incommensurate with FFT grid)


   Cartesian axes

     site n.     atom                  positions (alat units)
         1           Gd  tau(   1) = (   0.5000550   0.2886434   1.1974649  )
         2           Gd  tau(   2) = (  -0.0000401   0.5773734   0.3991550  )

     number of k points=    36  gaussian smearing, width (Ry)=  0.0100
                       cart. coord. in units 2pi/alat
        k(    1) = (   0.0000000   0.0000000   0.0000000), wk =   0.0312500
        k(    2) = (   0.0000000   0.0000000   0.1565808), wk =   0.0625000
        k(    3) = (   0.0000000   0.0000000  -0.3131616), wk =   0.0312500
        k(    4) = (   0.0000000   0.2886780   0.0000000), wk =   0.0625000
        k(    5) = (   0.0000000   0.2886780   0.1565808), wk =   0.0625000
        k(    6) = (   0.0000000   0.2886780  -0.3131616), wk =   0.0625000
        k(    7) = (   0.0000000  -0.5773560   0.0000000), wk =   0.0312500
        k(    8) = (   0.0000000  -0.5773560   0.1565808), wk =   0.0625000
        k(    9) = (   0.0000000  -0.5773560  -0.3131616), wk =   0.0312500
        k(   10) = (   0.2500000   0.1443347   0.0000000), wk =   0.0625000
        k(   11) = (   0.2500000   0.1443347   0.1565808), wk =   0.0625000
        k(   12) = (   0.2500000   0.1443347  -0.3131616), wk =   0.0625000
        k(   13) = (   0.2500000   0.4330127   0.0000000), wk =   0.0625000
        k(   14) = (   0.2500000   0.4330127   0.1565808), wk =   0.0625000
     reciprocal axes: (cart. coord. in units 2 pi/alat)
               b(1) = (  1.000000  0.577339  0.000000 )  
               b(2) = (  0.000000  1.154712  0.000000 )  
               b(3) = (  0.000000  0.000000  0.626323 )  


     PseudoPot. # 1 for Gd read from file:
     /home/shaharpit/AcHProject/meam_fit/dft/qe_potentials/Gd.GGA-PBE-paw-v1.0.UPF
     MD5 check sum: 3e8e0d208da550914ae52eaf991d13de
     Pseudo is Projector augmented-wave + core cor, Zval = 18.0
     Generated using ATOMPAW code
     Shape of augmentation charge: BESSEL
     Using radial grid of 1110 points,  8 beta functions with: 
                l(1) =   0
                l(2) =   0
                l(3) =   1
                l(4) =   1
                l(5) =   2
                l(6) =   2
                l(7) =   3
                l(8) =   3
     Q(r) pseudized with 0 coefficients 


     atomic species   valence    mass     pseudopotential
        Gd            18.00   157.25000     Gd( 1.00)

      2 Sym. Ops., with inversion, found
          (note:  2 additional sym.ops. were found but ignored
           their fractional translations are incommensurate with FFT grid)


   Cartesian axes

     site n.     atom                  positions (alat units)
         1           Gd  tau(   1) = (   0.5000550   0.2886434   1.1974649  )
         2           Gd  tau(   2) = (  -0.0000401   0.5773734   0.3991550  )

     number of k points=    36  gaussian smearing, width (Ry)=  0.0100
                       cart. coord. in units 2pi/alat
        k(    1) = (   0.0000000   0.0000000   0.0000000), wk =   0.0312500
        k(    2) = (   0.0000000   0.0000000   0.1565808), wk =   0.0625000
        k(    3) = (   0.0000000   0.0000000  -0.3131616), wk =   0.0312500
        k(    4) = (   0.0000000   0.2886780   0.0000000), wk =   0.0625000
        k(    5) = (   0.0000000   0.2886780   0.1565808), wk =   0.0625000
        k(    6) = (   0.0000000   0.2886780  -0.3131616), wk =   0.0625000
        k(    7) = (   0.0000000  -0.5773560   0.0000000), wk =   0.0312500
        k(    8) = (   0.0000000  -0.5773560   0.1565808), wk =   0.0625000
        k(    9) = (   0.0000000  -0.5773560  -0.3131616), wk =   0.0312500
        k(   10) = (   0.2500000   0.1443347   0.0000000), wk =   0.0625000
        k(   11) = (   0.2500000   0.1443347   0.1565808), wk =   0.0625000
        k(   12) = (   0.2500000   0.1443347  -0.3131616), wk =   0.0625000
        k(   13) = (   0.2500000   0.4330127   0.0000000), wk =   0.0625000
        k(   14) = (   0.2500000   0.4330127   0.1565808), wk =   0.0625000
        k(   15) = (   0.2500000   0.4330127  -0.3131616), wk =   0.0625000
        k(   16) = (   0.2500000  -0.4330213   0.0000000), wk =   0.0625000
        k(   17) = (   0.2500000  -0.4330213   0.1565808), wk =   0.0625000
        k(   18) = (   0.2500000  -0.4330213  -0.3131616), wk =   0.0625000
               b(1) = (  1.000000  0.577339  0.000000 )  
               b(2) = (  0.000000  1.154712  0.000000 )  
               b(3) = (  0.000000  0.000000  0.626323 )  


     PseudoPot. # 1 for Gd read from file:
     /home/shaharpit/AcHProject/meam_fit/dft/qe_potentials/Gd.GGA-PBE-paw-v1.0.UPF
     MD5 check sum: 3e8e0d208da550914ae52eaf991d13de
     Pseudo is Projector augmented-wave + core cor, Zval = 18.0
     Generated using ATOMPAW code
     Shape of augmentation charge: BESSEL
     Using radial grid of 1110 points,  8 beta functions with: 
                l(1) =   0
                l(2) =   0
                l(3) =   1
                l(4) =   1
                l(5) =   2
                l(6) =   2
                l(7) =   3
                l(8) =   3
     Q(r) pseudized with 0 coefficients 


     atomic species   valence    mass     pseudopotential
        Gd            18.00   157.25000     Gd( 1.00)

      2 Sym. Ops., with inversion, found
          (note:  2 additional sym.ops. were found but ignored
           their fractional translations are incommensurate with FFT grid)


   Cartesian axes

     site n.     atom                  positions (alat units)
         1           Gd  tau(   1) = (   0.5000550   0.2886434   1.1974649  )
         2           Gd  tau(   2) = (  -0.0000401   0.5773734   0.3991550  )

     number of k points=    36  gaussian smearing, width (Ry)=  0.0100
                       cart. coord. in units 2pi/alat
        k(    1) = (   0.0000000   0.0000000   0.0000000), wk =   0.0312500
        k(    2) = (   0.0000000   0.0000000   0.1565808), wk =   0.0625000
        k(    3) = (   0.0000000   0.0000000  -0.3131616), wk =   0.0312500
        k(    4) = (   0.0000000   0.2886780   0.0000000), wk =   0.0625000
        k(    5) = (   0.0000000   0.2886780   0.1565808), wk =   0.0625000
        k(    6) = (   0.0000000   0.2886780  -0.3131616), wk =   0.0625000
        k(    7) = (   0.0000000  -0.5773560   0.0000000), wk =   0.0312500
        k(    8) = (   0.0000000  -0.5773560   0.1565808), wk =   0.0625000
        k(    9) = (   0.0000000  -0.5773560  -0.3131616), wk =   0.0312500
        k(   10) = (   0.2500000   0.1443347   0.0000000), wk =   0.0625000
        k(   11) = (   0.2500000   0.1443347   0.1565808), wk =   0.0625000
        k(   12) = (   0.2500000   0.1443347  -0.3131616), wk =   0.0625000
        k(   13) = (   0.2500000   0.4330127   0.0000000), wk =   0.0625000
        k(   14) = (   0.2500000   0.4330127   0.1565808), wk =   0.0625000
        k(   15) = (   0.2500000   0.4330127  -0.3131616), wk =   0.0625000
        k(   16) = (   0.2500000  -0.4330213   0.0000000), wk =   0.0625000
        k(   17) = (   0.2500000  -0.4330213   0.1565808), wk =   0.0625000
        k(   18) = (   0.2500000  -0.4330213  -0.3131616), wk =   0.0625000
        k(   19) = (   0.2500000  -0.1443433   0.0000000), wk =   0.0625000

     PseudoPot. # 1 for Gd read from file:
     /home/shaharpit/AcHProject/meam_fit/dft/qe_potentials/Gd.GGA-PBE-paw-v1.0.UPF
     MD5 check sum: 3e8e0d208da550914ae52eaf991d13de
     Pseudo is Projector augmented-wave + core cor, Zval = 18.0
     Generated using ATOMPAW code
     Shape of augmentation charge: BESSEL
     Using radial grid of 1110 points,  8 beta functions with: 
                l(1) =   0
                l(2) =   0
                l(3) =   1
                l(4) =   1
                l(5) =   2
                l(6) =   2
                l(7) =   3
                l(8) =   3
     Q(r) pseudized with 0 coefficients 


     atomic species   valence    mass     pseudopotential
        Gd            18.00   157.25000     Gd( 1.00)

      2 Sym. Ops., with inversion, found
          (note:  2 additional sym.ops. were found but ignored
           their fractional translations are incommensurate with FFT grid)


   Cartesian axes

     site n.     atom                  positions (alat units)
         1           Gd  tau(   1) = (   0.5000550   0.2886434   1.1974649  )
         2           Gd  tau(   2) = (  -0.0000401   0.5773734   0.3991550  )

     number of k points=    36  gaussian smearing, width (Ry)=  0.0100
                       cart. coord. in units 2pi/alat
        k(    1) = (   0.0000000   0.0000000   0.0000000), wk =   0.0312500
        k(    2) = (   0.0000000   0.0000000   0.1565808), wk =   0.0625000
        k(    3) = (   0.0000000   0.0000000  -0.3131616), wk =   0.0312500
        k(    4) = (   0.0000000   0.2886780   0.0000000), wk =   0.0625000
        k(    5) = (   0.0000000   0.2886780   0.1565808), wk =   0.0625000
        k(    6) = (   0.0000000   0.2886780  -0.3131616), wk =   0.0625000
        k(    7) = (   0.0000000  -0.5773560   0.0000000), wk =   0.0312500
        k(    8) = (   0.0000000  -0.5773560   0.1565808), wk =   0.0625000
        k(    9) = (   0.0000000  -0.5773560  -0.3131616), wk =   0.0312500
        k(   10) = (   0.2500000   0.1443347   0.0000000), wk =   0.0625000
        k(   11) = (   0.2500000   0.1443347   0.1565808), wk =   0.0625000
        k(   12) = (   0.2500000   0.1443347  -0.3131616), wk =   0.0625000
        k(   13) = (   0.2500000   0.4330127   0.0000000), wk =   0.0625000
        k(   14) = (   0.2500000   0.4330127   0.1565808), wk =   0.0625000
        k(   15) = (   0.2500000   0.4330127  -0.3131616), wk =   0.0625000
        k(   16) = (   0.2500000  -0.4330213   0.0000000), wk =   0.0625000
        k(   17) = (   0.2500000  -0.4330213   0.1565808), wk =   0.0625000
        k(   18) = (   0.2500000  -0.4330213  -0.3131616), wk =   0.0625000
        k(   19) = (   0.2500000  -0.1443433   0.0000000), wk =   0.0625000
        k(   20) = (   0.2500000  -0.1443433   0.1565808), wk =   0.0625000
        k(   21) = (   0.2500000  -0.1443433  -0.3131616), wk =   0.0625000
        k(   22) = (  -0.5000000  -0.2886694   0.0000000), wk =   0.0312500
        k(   23) = (  -0.5000000  -0.2886694   0.1565808), wk =   0.0625000
        k(   24) = (  -0.5000000  -0.2886694  -0.3131616), wk =   0.0312500
        k(   25) = (  -0.5000000   0.0000086   0.0000000), wk =   0.0625000
        k(   26) = (  -0.5000000   0.0000086   0.1565808), wk =   0.0625000
     Pseudo is Projector augmented-wave + core cor, Zval = 18.0
     Generated using ATOMPAW code
     Shape of augmentation charge: BESSEL
     Using radial grid of 1110 points,  8 beta functions with: 
                l(1) =   0
                l(2) =   0
                l(3) =   1
                l(4) =   1
                l(5) =   2
                l(6) =   2
                l(7) =   3
                l(8) =   3
     Q(r) pseudized with 0 coefficients 


     atomic species   valence    mass     pseudopotential
        Gd            18.00   157.25000     Gd( 1.00)

      2 Sym. Ops., with inversion, found
          (note:  2 additional sym.ops. were found but ignored
           their fractional translations are incommensurate with FFT grid)


   Cartesian axes

     site n.     atom                  positions (alat units)
         1           Gd  tau(   1) = (   0.5000550   0.2886434   1.1974649  )
         2           Gd  tau(   2) = (  -0.0000401   0.5773734   0.3991550  )

     number of k points=    36  gaussian smearing, width (Ry)=  0.0100
                       cart. coord. in units 2pi/alat
        k(    1) = (   0.0000000   0.0000000   0.0000000), wk =   0.0312500
        k(    2) = (   0.0000000   0.0000000   0.1565808), wk =   0.0625000
        k(    3) = (   0.0000000   0.0000000  -0.3131616), wk =   0.0312500
        k(    4) = (   0.0000000   0.2886780   0.0000000), wk =   0.0625000
        k(    5) = (   0.0000000   0.2886780   0.1565808), wk =   0.0625000
        k(    6) = (   0.0000000   0.2886780  -0.3131616), wk =   0.0625000
        k(    7) = (   0.0000000  -0.5773560   0.0000000), wk =   0.0312500
        k(    8) = (   0.0000000  -0.5773560   0.1565808), wk =   0.0625000
        k(    9) = (   0.0000000  -0.5773560  -0.3131616), wk =   0.0312500
        k(   10) = (   0.2500000   0.1443347   0.0000000), wk =   0.0625000
        k(   11) = (   0.2500000   0.1443347   0.1565808), wk =   0.0625000
        k(   12) = (   0.2500000   0.1443347  -0.3131616), wk =   0.0625000
        k(   13) = (   0.2500000   0.4330127   0.0000000), wk =   0.0625000
        k(   14) = (   0.2500000   0.4330127   0.1565808), wk =   0.0625000
        k(   15) = (   0.2500000   0.4330127  -0.3131616), wk =   0.0625000
        k(   16) = (   0.2500000  -0.4330213   0.0000000), wk =   0.0625000
        k(   17) = (   0.2500000  -0.4330213   0.1565808), wk =   0.0625000
        k(   18) = (   0.2500000  -0.4330213  -0.3131616), wk =   0.0625000
        k(   19) = (   0.2500000  -0.1443433   0.0000000), wk =   0.0625000
        k(   20) = (   0.2500000  -0.1443433   0.1565808), wk =   0.0625000
        k(   21) = (   0.2500000  -0.1443433  -0.3131616), wk =   0.0625000
        k(   27) = (  -0.5000000   0.0000086  -0.3131616), wk =   0.0625000
        k(   28) = (  -0.5000000  -0.8660253   0.0000000), wk =   0.0312500
        k(   29) = (  -0.5000000  -0.8660253   0.1565808), wk =   0.0625000
        k(   30) = (  -0.5000000  -0.8660253  -0.3131616), wk =   0.0312500
        k(   31) = (   0.0000000  -0.2886780   0.1565808), wk =   0.0625000
        k(   32) = (  -0.2500000  -0.1443347   0.1565808), wk =   0.0625000
        k(   33) = (  -0.2500000  -0.4330127   0.1565808), wk =   0.0625000
        k(   34) = (  -0.2500000   0.4330213   0.1565808), wk =   0.0625000
        k(   35) = (  -0.2500000   0.1443433   0.1565808), wk =   0.0625000
        k(   36) = (   0.5000000  -0.0000086   0.1565808), wk =   0.0625000

     Dense  grid:    16863 G-vectors     FFT dimensions: (  30,  30,  45)
         2           Gd  tau(   2) = (  -0.0000401   0.5773734   0.3991550  )

     number of k points=    36  gaussian smearing, width (Ry)=  0.0100
                       cart. coord. in units 2pi/alat
        k(    1) = (   0.0000000   0.0000000   0.0000000), wk =   0.0312500
        k(    2) = (   0.0000000   0.0000000   0.1565808), wk =   0.0625000
        k(    3) = (   0.0000000   0.0000000  -0.3131616), wk =   0.0312500
        k(    4) = (   0.0000000   0.2886780   0.0000000), wk =   0.0625000
        k(    5) = (   0.0000000   0.2886780   0.1565808), wk =   0.0625000
        k(    6) = (   0.0000000   0.2886780  -0.3131616), wk =   0.0625000
        k(    7) = (   0.0000000  -0.5773560   0.0000000), wk =   0.0312500
        k(    8) = (   0.0000000  -0.5773560   0.1565808), wk =   0.0625000
        k(    9) = (   0.0000000  -0.5773560  -0.3131616), wk =   0.0312500
        k(   10) = (   0.2500000   0.1443347   0.0000000), wk =   0.0625000
        k(   11) = (   0.2500000   0.1443347   0.1565808), wk =   0.0625000
        k(   12) = (   0.2500000   0.1443347  -0.3131616), wk =   0.0625000
        k(   13) = (   0.2500000   0.4330127   0.0000000), wk =   0.0625000
        k(   14) = (   0.2500000   0.4330127   0.1565808), wk =   0.0625000
        k(   15) = (   0.2500000   0.4330127  -0.3131616), wk =   0.0625000
        k(   16) = (   0.2500000  -0.4330213   0.0000000), wk =   0.0625000
        k(   17) = (   0.2500000  -0.4330213   0.1565808), wk =   0.0625000
        k(   18) = (   0.2500000  -0.4330213  -0.3131616), wk =   0.0625000
        k(   19) = (   0.2500000  -0.1443433   0.0000000), wk =   0.0625000
        k(   20) = (   0.2500000  -0.1443433   0.1565808), wk =   0.0625000
        k(   21) = (   0.2500000  -0.1443433  -0.3131616), wk =   0.0625000
        k(   22) = (  -0.5000000  -0.2886694   0.0000000), wk =   0.0312500
        k(   23) = (  -0.5000000  -0.2886694   0.1565808), wk =   0.0625000
        k(   24) = (  -0.5000000  -0.2886694  -0.3131616), wk =   0.0312500
        k(   25) = (  -0.5000000   0.0000086   0.0000000), wk =   0.0625000
        k(   26) = (  -0.5000000   0.0000086   0.1565808), wk =   0.0625000
        k(   27) = (  -0.5000000   0.0000086  -0.3131616), wk =   0.0625000
        k(   28) = (  -0.5000000  -0.8660253   0.0000000), wk =   0.0312500
        k(   29) = (  -0.5000000  -0.8660253   0.1565808), wk =   0.0625000
        k(   30) = (  -0.5000000  -0.8660253  -0.3131616), wk =   0.0312500
        k(   31) = (   0.0000000  -0.2886780   0.1565808), wk =   0.0625000
        k(   32) = (  -0.2500000  -0.1443347   0.1565808), wk =   0.0625000
        k(   33) = (  -0.2500000  -0.4330127   0.1565808), wk =   0.0625000
        k(   34) = (  -0.2500000   0.4330213   0.1565808), wk =   0.0625000
        k(   35) = (  -0.2500000   0.1443433   0.1565808), wk =   0.0625000
        k(   36) = (   0.5000000  -0.0000086   0.1565808), wk =   0.0625000

     Dense  grid:    16863 G-vectors     FFT dimensions: (  30,  30,  45)
           their fractional translations are incommensurate with FFT grid)


   Cartesian axes

     site n.     atom                  positions (alat units)
         1           Gd  tau(   1) = (   0.5000550   0.2886434   1.1974649  )
         2           Gd  tau(   2) = (  -0.0000401   0.5773734   0.3991550  )

     number of k points=    36  gaussian smearing, width (Ry)=  0.0100
                       cart. coord. in units 2pi/alat
        k(    1) = (   0.0000000   0.0000000   0.0000000), wk =   0.0312500
        k(    2) = (   0.0000000   0.0000000   0.1565808), wk =   0.0625000
        k(    3) = (   0.0000000   0.0000000  -0.3131616), wk =   0.0312500
        k(    4) = (   0.0000000   0.2886780   0.0000000), wk =   0.0625000
        k(    5) = (   0.0000000   0.2886780   0.1565808), wk =   0.0625000
        k(    6) = (   0.0000000   0.2886780  -0.3131616), wk =   0.0625000
        k(    7) = (   0.0000000  -0.5773560   0.0000000), wk =   0.0312500
        k(    8) = (   0.0000000  -0.5773560   0.1565808), wk =   0.0625000
        k(    9) = (   0.0000000  -0.5773560  -0.3131616), wk =   0.0312500
        k(   10) = (   0.2500000   0.1443347   0.0000000), wk =   0.0625000
        k(   11) = (   0.2500000   0.1443347   0.1565808), wk =   0.0625000
        k(   12) = (   0.2500000   0.1443347  -0.3131616), wk =   0.0625000
        k(   13) = (   0.2500000   0.4330127   0.0000000), wk =   0.0625000
        k(   14) = (   0.2500000   0.4330127   0.1565808), wk =   0.0625000
        k(   15) = (   0.2500000   0.4330127  -0.3131616), wk =   0.0625000
        k(   16) = (   0.2500000  -0.4330213   0.0000000), wk =   0.0625000
        k(   17) = (   0.2500000  -0.4330213   0.1565808), wk =   0.0625000
        k(   18) = (   0.2500000  -0.4330213  -0.3131616), wk =   0.0625000
        k(   19) = (   0.2500000  -0.1443433   0.0000000), wk =   0.0625000
        k(   20) = (   0.2500000  -0.1443433   0.1565808), wk =   0.0625000
        k(   21) = (   0.2500000  -0.1443433  -0.3131616), wk =   0.0625000
        k(   22) = (  -0.5000000  -0.2886694   0.0000000), wk =   0.0312500
        k(   23) = (  -0.5000000  -0.2886694   0.1565808), wk =   0.0625000
        k(   24) = (  -0.5000000  -0.2886694  -0.3131616), wk =   0.0312500
        k(   25) = (  -0.5000000   0.0000086   0.0000000), wk =   0.0625000
        k(   26) = (  -0.5000000   0.0000086   0.1565808), wk =   0.0625000
        k(   27) = (  -0.5000000   0.0000086  -0.3131616), wk =   0.0625000
        k(   28) = (  -0.5000000  -0.8660253   0.0000000), wk =   0.0312500
        k(   29) = (  -0.5000000  -0.8660253   0.1565808), wk =   0.0625000
        k(   30) = (  -0.5000000  -0.8660253  -0.3131616), wk =   0.0312500
        k(   31) = (   0.0000000  -0.2886780   0.1565808), wk =   0.0625000
        k(    1) = (   0.0000000   0.0000000   0.0000000), wk =   0.0312500
        k(    2) = (   0.0000000   0.0000000   0.1565808), wk =   0.0625000
        k(    3) = (   0.0000000   0.0000000  -0.3131616), wk =   0.0312500
        k(    4) = (   0.0000000   0.2886780   0.0000000), wk =   0.0625000
        k(    5) = (   0.0000000   0.2886780   0.1565808), wk =   0.0625000
        k(    6) = (   0.0000000   0.2886780  -0.3131616), wk =   0.0625000
        k(    7) = (   0.0000000  -0.5773560   0.0000000), wk =   0.0312500
        k(    8) = (   0.0000000  -0.5773560   0.1565808), wk =   0.0625000
        k(    9) = (   0.0000000  -0.5773560  -0.3131616), wk =   0.0312500
        k(   10) = (   0.2500000   0.1443347   0.0000000), wk =   0.0625000
        k(   11) = (   0.2500000   0.1443347   0.1565808), wk =   0.0625000
        k(   12) = (   0.2500000   0.1443347  -0.3131616), wk =   0.0625000
        k(   13) = (   0.2500000   0.4330127   0.0000000), wk =   0.0625000
        k(   14) = (   0.2500000   0.4330127   0.1565808), wk =   0.0625000
        k(   15) = (   0.2500000   0.4330127  -0.3131616), wk =   0.0625000
        k(   16) = (   0.2500000  -0.4330213   0.0000000), wk =   0.0625000
        k(   17) = (   0.2500000  -0.4330213   0.1565808), wk =   0.0625000
        k(   18) = (   0.2500000  -0.4330213  -0.3131616), wk =   0.0625000
        k(   19) = (   0.2500000  -0.1443433   0.0000000), wk =   0.0625000
        k(   20) = (   0.2500000  -0.1443433   0.1565808), wk =   0.0625000
        k(   21) = (   0.2500000  -0.1443433  -0.3131616), wk =   0.0625000
        k(   22) = (  -0.5000000  -0.2886694   0.0000000), wk =   0.0312500
        k(   23) = (  -0.5000000  -0.2886694   0.1565808), wk =   0.0625000
        k(   24) = (  -0.5000000  -0.2886694  -0.3131616), wk =   0.0312500
        k(   25) = (  -0.5000000   0.0000086   0.0000000), wk =   0.0625000
        k(   26) = (  -0.5000000   0.0000086   0.1565808), wk =   0.0625000
        k(   27) = (  -0.5000000   0.0000086  -0.3131616), wk =   0.0625000
        k(   28) = (  -0.5000000  -0.8660253   0.0000000), wk =   0.0312500
        k(   29) = (  -0.5000000  -0.8660253   0.1565808), wk =   0.0625000
        k(   30) = (  -0.5000000  -0.8660253  -0.3131616), wk =   0.0312500
        k(   31) = (   0.0000000  -0.2886780   0.1565808), wk =   0.0625000
        k(   32) = (  -0.2500000  -0.1443347   0.1565808), wk =   0.0625000
        k(   33) = (  -0.2500000  -0.4330127   0.1565808), wk =   0.0625000
        k(   34) = (  -0.2500000   0.4330213   0.1565808), wk =   0.0625000
        k(   35) = (  -0.2500000   0.1443433   0.1565808), wk =   0.0625000
        k(   36) = (   0.5000000  -0.0000086   0.1565808), wk =   0.0625000

     Dense  grid:    16863 G-vectors     FFT dimensions: (  30,  30,  45)
        k(    7) = (   0.0000000  -0.5773560   0.0000000), wk =   0.0312500
        k(    8) = (   0.0000000  -0.5773560   0.1565808), wk =   0.0625000
        k(    9) = (   0.0000000  -0.5773560  -0.3131616), wk =   0.0312500
        k(   10) = (   0.2500000   0.1443347   0.0000000), wk =   0.0625000
        k(   11) = (   0.2500000   0.1443347   0.1565808), wk =   0.0625000
        k(   12) = (   0.2500000   0.1443347  -0.3131616), wk =   0.0625000
        k(   13) = (   0.2500000   0.4330127   0.0000000), wk =   0.0625000
        k(   14) = (   0.2500000   0.4330127   0.1565808), wk =   0.0625000
        k(   15) = (   0.2500000   0.4330127  -0.3131616), wk =   0.0625000
        k(   16) = (   0.2500000  -0.4330213   0.0000000), wk =   0.0625000
        k(   17) = (   0.2500000  -0.4330213   0.1565808), wk =   0.0625000
        k(   18) = (   0.2500000  -0.4330213  -0.3131616), wk =   0.0625000
        k(   19) = (   0.2500000  -0.1443433   0.0000000), wk =   0.0625000
        k(   20) = (   0.2500000  -0.1443433   0.1565808), wk =   0.0625000
        k(   21) = (   0.2500000  -0.1443433  -0.3131616), wk =   0.0625000
        k(   22) = (  -0.5000000  -0.2886694   0.0000000), wk =   0.0312500
        k(   23) = (  -0.5000000  -0.2886694   0.1565808), wk =   0.0625000
        k(   24) = (  -0.5000000  -0.2886694  -0.3131616), wk =   0.0312500
        k(   25) = (  -0.5000000   0.0000086   0.0000000), wk =   0.0625000
        k(   26) = (  -0.5000000   0.0000086   0.1565808), wk =   0.0625000
        k(   27) = (  -0.5000000   0.0000086  -0.3131616), wk =   0.0625000
        k(   28) = (  -0.5000000  -0.8660253   0.0000000), wk =   0.0312500
        k(   29) = (  -0.5000000  -0.8660253   0.1565808), wk =   0.0625000
        k(   30) = (  -0.5000000  -0.8660253  -0.3131616), wk =   0.0312500
        k(   31) = (   0.0000000  -0.2886780   0.1565808), wk =   0.0625000
        k(   32) = (  -0.2500000  -0.1443347   0.1565808), wk =   0.0625000
        k(   33) = (  -0.2500000  -0.4330127   0.1565808), wk =   0.0625000
        k(   34) = (  -0.2500000   0.4330213   0.1565808), wk =   0.0625000
        k(   35) = (  -0.2500000   0.1443433   0.1565808), wk =   0.0625000
        k(   36) = (   0.5000000  -0.0000086   0.1565808), wk =   0.0625000

     Dense  grid:    16863 G-vectors     FFT dimensions: (  30,  30,  45)
        k(    9) = (   0.0000000  -0.5773560  -0.3131616), wk =   0.0312500
        k(   10) = (   0.2500000   0.1443347   0.0000000), wk =   0.0625000
        k(   11) = (   0.2500000   0.1443347   0.1565808), wk =   0.0625000
        k(   12) = (   0.2500000   0.1443347  -0.3131616), wk =   0.0625000
        k(   13) = (   0.2500000   0.4330127   0.0000000), wk =   0.0625000
        k(   14) = (   0.2500000   0.4330127   0.1565808), wk =   0.0625000
        k(   15) = (   0.2500000   0.4330127  -0.3131616), wk =   0.0625000
        k(   16) = (   0.2500000  -0.4330213   0.0000000), wk =   0.0625000
        k(   17) = (   0.2500000  -0.4330213   0.1565808), wk =   0.0625000
        k(   18) = (   0.2500000  -0.4330213  -0.3131616), wk =   0.0625000
        k(   19) = (   0.2500000  -0.1443433   0.0000000), wk =   0.0625000
        k(   20) = (   0.2500000  -0.1443433   0.1565808), wk =   0.0625000
        k(   21) = (   0.2500000  -0.1443433  -0.3131616), wk =   0.0625000
        k(   22) = (  -0.5000000  -0.2886694   0.0000000), wk =   0.0312500
        k(   23) = (  -0.5000000  -0.2886694   0.1565808), wk =   0.0625000
        k(   24) = (  -0.5000000  -0.2886694  -0.3131616), wk =   0.0312500
        k(   25) = (  -0.5000000   0.0000086   0.0000000), wk =   0.0625000
        k(   26) = (  -0.5000000   0.0000086   0.1565808), wk =   0.0625000
        k(   27) = (  -0.5000000   0.0000086  -0.3131616), wk =   0.0625000
        k(   28) = (  -0.5000000  -0.8660253   0.0000000), wk =   0.0312500
        k(   29) = (  -0.5000000  -0.8660253   0.1565808), wk =   0.0625000
        k(   30) = (  -0.5000000  -0.8660253  -0.3131616), wk =   0.0312500
        k(   31) = (   0.0000000  -0.2886780   0.1565808), wk =   0.0625000
        k(   32) = (  -0.2500000  -0.1443347   0.1565808), wk =   0.0625000
        k(   33) = (  -0.2500000  -0.4330127   0.1565808), wk =   0.0625000
        k(   34) = (  -0.2500000   0.4330213   0.1565808), wk =   0.0625000
        k(   35) = (  -0.2500000   0.1443433   0.1565808), wk =   0.0625000
        k(   36) = (   0.5000000  -0.0000086   0.1565808), wk =   0.0625000

     Dense  grid:    16863 G-vectors     FFT dimensions: (  30,  30,  45)
        k(   13) = (   0.2500000   0.4330127   0.0000000), wk =   0.0625000
        k(   14) = (   0.2500000   0.4330127   0.1565808), wk =   0.0625000
        k(   15) = (   0.2500000   0.4330127  -0.3131616), wk =   0.0625000
        k(   16) = (   0.2500000  -0.4330213   0.0000000), wk =   0.0625000
        k(   17) = (   0.2500000  -0.4330213   0.1565808), wk =   0.0625000
        k(   18) = (   0.2500000  -0.4330213  -0.3131616), wk =   0.0625000
        k(   19) = (   0.2500000  -0.1443433   0.0000000), wk =   0.0625000
        k(   20) = (   0.2500000  -0.1443433   0.1565808), wk =   0.0625000
        k(   21) = (   0.2500000  -0.1443433  -0.3131616), wk =   0.0625000
        k(   22) = (  -0.5000000  -0.2886694   0.0000000), wk =   0.0312500
        k(   23) = (  -0.5000000  -0.2886694   0.1565808), wk =   0.0625000
        k(   24) = (  -0.5000000  -0.2886694  -0.3131616), wk =   0.0312500
        k(   25) = (  -0.5000000   0.0000086   0.0000000), wk =   0.0625000
        k(   26) = (  -0.5000000   0.0000086   0.1565808), wk =   0.0625000
        k(   27) = (  -0.5000000   0.0000086  -0.3131616), wk =   0.0625000
        k(   28) = (  -0.5000000  -0.8660253   0.0000000), wk =   0.0312500
        k(   29) = (  -0.5000000  -0.8660253   0.1565808), wk =   0.0625000
        k(   30) = (  -0.5000000  -0.8660253  -0.3131616), wk =   0.0312500
        k(   31) = (   0.0000000  -0.2886780   0.1565808), wk =   0.0625000
        k(   32) = (  -0.2500000  -0.1443347   0.1565808), wk =   0.0625000
        k(   33) = (  -0.2500000  -0.4330127   0.1565808), wk =   0.0625000
        k(   34) = (  -0.2500000   0.4330213   0.1565808), wk =   0.0625000
        k(   35) = (  -0.2500000   0.1443433   0.1565808), wk =   0.0625000
        k(   36) = (   0.5000000  -0.0000086   0.1565808), wk =   0.0625000

     Dense  grid:    16863 G-vectors     FFT dimensions: (  30,  30,  45)
        k(   15) = (   0.2500000   0.4330127  -0.3131616), wk =   0.0625000
        k(   16) = (   0.2500000  -0.4330213   0.0000000), wk =   0.0625000
        k(   17) = (   0.2500000  -0.4330213   0.1565808), wk =   0.0625000
        k(   18) = (   0.2500000  -0.4330213  -0.3131616), wk =   0.0625000
        k(   19) = (   0.2500000  -0.1443433   0.0000000), wk =   0.0625000
        k(   20) = (   0.2500000  -0.1443433   0.1565808), wk =   0.0625000
        k(   21) = (   0.2500000  -0.1443433  -0.3131616), wk =   0.0625000
        k(   22) = (  -0.5000000  -0.2886694   0.0000000), wk =   0.0312500
        k(   23) = (  -0.5000000  -0.2886694   0.1565808), wk =   0.0625000
        k(   24) = (  -0.5000000  -0.2886694  -0.3131616), wk =   0.0312500
        k(   25) = (  -0.5000000   0.0000086   0.0000000), wk =   0.0625000
        k(   26) = (  -0.5000000   0.0000086   0.1565808), wk =   0.0625000
        k(   27) = (  -0.5000000   0.0000086  -0.3131616), wk =   0.0625000
        k(   28) = (  -0.5000000  -0.8660253   0.0000000), wk =   0.0312500
        k(   29) = (  -0.5000000  -0.8660253   0.1565808), wk =   0.0625000
        k(   30) = (  -0.5000000  -0.8660253  -0.3131616), wk =   0.0312500
        k(   31) = (   0.0000000  -0.2886780   0.1565808), wk =   0.0625000
        k(   32) = (  -0.2500000  -0.1443347   0.1565808), wk =   0.0625000
        k(   33) = (  -0.2500000  -0.4330127   0.1565808), wk =   0.0625000
        k(   34) = (  -0.2500000   0.4330213   0.1565808), wk =   0.0625000
        k(   35) = (  -0.2500000   0.1443433   0.1565808), wk =   0.0625000
        k(   36) = (   0.5000000  -0.0000086   0.1565808), wk =   0.0625000

     Dense  grid:    16863 G-vectors     FFT dimensions: (  30,  30,  45)
        k(   19) = (   0.2500000  -0.1443433   0.0000000), wk =   0.0625000
        k(   20) = (   0.2500000  -0.1443433   0.1565808), wk =   0.0625000
        k(   21) = (   0.2500000  -0.1443433  -0.3131616), wk =   0.0625000
        k(   22) = (  -0.5000000  -0.2886694   0.0000000), wk =   0.0312500
        k(   23) = (  -0.5000000  -0.2886694   0.1565808), wk =   0.0625000
        k(   24) = (  -0.5000000  -0.2886694  -0.3131616), wk =   0.0312500
        k(   25) = (  -0.5000000   0.0000086   0.0000000), wk =   0.0625000
        k(   26) = (  -0.5000000   0.0000086   0.1565808), wk =   0.0625000
        k(   27) = (  -0.5000000   0.0000086  -0.3131616), wk =   0.0625000
        k(   28) = (  -0.5000000  -0.8660253   0.0000000), wk =   0.0312500
        k(   29) = (  -0.5000000  -0.8660253   0.1565808), wk =   0.0625000
        k(   30) = (  -0.5000000  -0.8660253  -0.3131616), wk =   0.0312500
        k(   31) = (   0.0000000  -0.2886780   0.1565808), wk =   0.0625000
        k(   32) = (  -0.2500000  -0.1443347   0.1565808), wk =   0.0625000
        k(   33) = (  -0.2500000  -0.4330127   0.1565808), wk =   0.0625000
        k(   34) = (  -0.2500000   0.4330213   0.1565808), wk =   0.0625000
        k(   35) = (  -0.2500000   0.1443433   0.1565808), wk =   0.0625000
        k(   36) = (   0.5000000  -0.0000086   0.1565808), wk =   0.0625000

     Dense  grid:    16863 G-vectors     FFT dimensions: (  30,  30,  45)
        k(   20) = (   0.2500000  -0.1443433   0.1565808), wk =   0.0625000
        k(   21) = (   0.2500000  -0.1443433  -0.3131616), wk =   0.0625000
        k(   22) = (  -0.5000000  -0.2886694   0.0000000), wk =   0.0312500
        k(   23) = (  -0.5000000  -0.2886694   0.1565808), wk =   0.0625000
        k(   24) = (  -0.5000000  -0.2886694  -0.3131616), wk =   0.0312500
        k(   25) = (  -0.5000000   0.0000086   0.0000000), wk =   0.0625000
        k(   26) = (  -0.5000000   0.0000086   0.1565808), wk =   0.0625000
        k(   27) = (  -0.5000000   0.0000086  -0.3131616), wk =   0.0625000
        k(   28) = (  -0.5000000  -0.8660253   0.0000000), wk =   0.0312500
        k(   29) = (  -0.5000000  -0.8660253   0.1565808), wk =   0.0625000
        k(   30) = (  -0.5000000  -0.8660253  -0.3131616), wk =   0.0312500
        k(   31) = (   0.0000000  -0.2886780   0.1565808), wk =   0.0625000
        k(   32) = (  -0.2500000  -0.1443347   0.1565808), wk =   0.0625000
        k(   33) = (  -0.2500000  -0.4330127   0.1565808), wk =   0.0625000
        k(   34) = (  -0.2500000   0.4330213   0.1565808), wk =   0.0625000
        k(   35) = (  -0.2500000   0.1443433   0.1565808), wk =   0.0625000
        k(   36) = (   0.5000000  -0.0000086   0.1565808), wk =   0.0625000

     Dense  grid:    16863 G-vectors     FFT dimensions: (  30,  30,  45)
        k(   22) = (  -0.5000000  -0.2886694   0.0000000), wk =   0.0312500
        k(   23) = (  -0.5000000  -0.2886694   0.1565808), wk =   0.0625000
        k(   24) = (  -0.5000000  -0.2886694  -0.3131616), wk =   0.0312500
        k(   25) = (  -0.5000000   0.0000086   0.0000000), wk =   0.0625000
        k(   26) = (  -0.5000000   0.0000086   0.1565808), wk =   0.0625000
        k(   27) = (  -0.5000000   0.0000086  -0.3131616), wk =   0.0625000
        k(   28) = (  -0.5000000  -0.8660253   0.0000000), wk =   0.0312500
        k(   29) = (  -0.5000000  -0.8660253   0.1565808), wk =   0.0625000
        k(   30) = (  -0.5000000  -0.8660253  -0.3131616), wk =   0.0312500
        k(   31) = (   0.0000000  -0.2886780   0.1565808), wk =   0.0625000
        k(   32) = (  -0.2500000  -0.1443347   0.1565808), wk =   0.0625000
        k(   33) = (  -0.2500000  -0.4330127   0.1565808), wk =   0.0625000
        k(   34) = (  -0.2500000   0.4330213   0.1565808), wk =   0.0625000
        k(   35) = (  -0.2500000   0.1443433   0.1565808), wk =   0.0625000
        k(   36) = (   0.5000000  -0.0000086   0.1565808), wk =   0.0625000

     Dense  grid:    16863 G-vectors     FFT dimensions: (  30,  30,  45)
        k(   32) = (  -0.2500000  -0.1443347   0.1565808), wk =   0.0625000
        k(   33) = (  -0.2500000  -0.4330127   0.1565808), wk =   0.0625000
        k(   34) = (  -0.2500000   0.4330213   0.1565808), wk =   0.0625000
        k(   35) = (  -0.2500000   0.1443433   0.1565808), wk =   0.0625000
        k(   36) = (   0.5000000  -0.0000086   0.1565808), wk =   0.0625000

     Dense  grid:    16863 G-vectors     FFT dimensions: (  30,  30,  45)

     Estimated max dynamical RAM per process >      43.63MB

     Estimated max dynamical RAM per process >      43.63MB

     Estimated max dynamical RAM per process >      43.63MB

     Estimated max dynamical RAM per process >      43.63MB

     Estimated max dynamical RAM per process >      43.63MB

     Estimated max dynamical RAM per process >      43.63MB

     Estimated max dynamical RAM per process >      43.63MB

     Estimated max dynamical RAM per process >      43.63MB

     Estimated max dynamical RAM per process >      43.63MB

     Estimated max dynamical RAM per process >      43.63MB

     Estimated max dynamical RAM per process >      43.63MB
               file Gd.GGA-PBE-paw-v1.0.UPF: wavefunction(s)  Xn Xn Xn Xn Xn Xn renormalized

     Subspace diagonalization in iterative solution of the eigenvalue problem:
     a serial algorithm will be used

 
     G-vector sticks info
     --------------------
     sticks:   dense  smooth     PW     G-vecs:    dense   smooth      PW
     Sum         559     559    187                16863    16863    3177
 


     bravais-lattice index     =            0
     lattice parameter (alat)  =       6.3398  a.u.
     unit-cell volume          =     352.3410 (a.u.)^3
     number of atoms/cell      =            2
     number of atomic types    =            1
     number of electrons       =        36.00
     number of Kohn-Sham states=           22
     kinetic-energy cutoff     =      50.0000  Ry
     charge density cutoff     =     200.0000  Ry
     convergence threshold     =      1.0E-06
     mixing beta               =       0.7000
     number of iterations used =            8  plain     mixing
     Exchange-correlation      = SLA PW PBX PBC ( 1  4  3  4 0 0)
     nstep                     =          150


     celldm(1)=   6.339842  celldm(2)=   0.000000  celldm(3)=   0.000000
     celldm(4)=   0.000000  celldm(5)=   0.000000  celldm(6)=   0.000000

     crystal axes: (cart. coord. in units of alat)
[...]
    14.5507  14.5508  15.1417  15.1419  15.2891  15.2894  15.3569  15.3571
    15.4197  15.4201  15.5245  15.5251  15.6189  15.6191

          k = 0.2500-0.4330 0.0000 (  2111 PWs)   bands (ev):

   -26.5275 -26.4547  -5.1221  -4.9835  -4.8364  -4.6293  -4.3708  -4.2615
    14.5532  14.9518  15.2153  15.2154  15.2637  15.3216  15.3795  15.4508
    15.4732  15.4901  15.5809  15.5844  15.5919  15.6208

          k = 0.2500-0.4330 0.1566 (  2104 PWs)   bands (ev):

   -26.5168 -26.4653  -5.2090  -5.1652  -4.7178  -4.5631  -4.3798  -4.1407
    14.5830  14.6919  15.1932  15.2223  15.2633  15.3039  15.3182  15.4137
    15.4408  15.4851  15.5154  15.5277  15.6032  15.6293

          k = 0.2500-0.4330-0.3132 (  2120 PWs)   bands (ev):

   -26.4911 -26.4911  -5.2700  -5.2698  -4.6434  -4.6434  -4.1606  -4.1605
    14.5507  14.5508  15.1417  15.1420  15.2890  15.2894  15.3569  15.3571
    15.4199  15.4202  15.5247  15.5250  15.6189  15.6192

          k = 0.2500-0.1443 0.0000 (  2118 PWs)   bands (ev):

   -26.6337 -26.4709  -5.2717  -4.7758  -4.5344  -4.3323  -3.9937  -3.9816
    12.8912  14.5875  15.1487  15.2036  15.2298  15.3015  15.3865  15.4395
    15.4738  15.4753  15.4999  15.5089  15.5211  15.6155

          k = 0.2500-0.1443 0.1566 (  2100 PWs)   bands (ev):

   -26.6102 -26.4951  -5.2148  -4.7356  -4.5774  -4.2843  -4.0462  -4.0450
    13.2090  14.6678  15.0420  15.2013  15.2583  15.3066  15.3827  15.4088
    15.4175  15.4650  15.4970  15.5193  15.5532  15.5939

          k = 0.2500-0.1443-0.3132 (  2086 PWs)   bands (ev):

   -26.5530 -26.5530  -5.0095  -5.0093  -4.2830  -4.2829  -4.1663  -4.1663
    14.0510  14.0512  15.0951  15.0955  15.3081  15.3085  15.3828  15.3830
    15.4210  15.4214  15.4765  15.4767  15.5921  15.5922

          k =-0.5000-0.2887 0.0000 (  2124 PWs)   bands (ev):

   -26.5265 -26.4555  -5.3722  -5.0712  -4.8248  -4.5031  -4.2746  -4.0910
    14.0642  14.2988  14.5286  15.2626  15.3177  15.3418  15.3877  15.3931
    15.4487  15.4640  15.5400  15.5563  15.6228  15.6260

          k =-0.5000-0.2887 0.1566 (  2098 PWs)   bands (ev):

   -26.5161 -26.4659  -5.4711  -5.2446  -4.5861  -4.4453  -4.2076  -4.1540
    13.6465  14.1446  15.1675  15.2304  15.3023  15.3431  15.3772  15.4078
    15.4106  15.4719  15.5356  15.5395  15.6112  15.6203

          k =-0.5000-0.2887-0.3132 (  2100 PWs)   bands (ev):

   -26.4910 -26.4910  -5.4588  -5.4588  -4.3022  -4.3022  -4.2792  -4.2792
    13.7918  13.7918  15.1122  15.1123  15.3549  15.3550  15.3722  15.3723
    15.4623  15.4623  15.5066  15.5066  15.6076  15.6077

          k =-0.5000 0.0000 0.0000 (  2111 PWs)   bands (ev):

   -26.5275 -26.4547  -5.1221  -4.9835  -4.8364  -4.6293  -4.3708  -4.2615
    14.5531  14.9517  15.2153  15.2155  15.2638  15.3217  15.3795  15.4507
    15.4732  15.4902  15.5808  15.5845  15.5919  15.6206

          k =-0.5000 0.0000 0.1566 (  2104 PWs)   bands (ev):

   -26.5168 -26.4653  -5.2090  -5.1652  -4.7178  -4.5630  -4.3798  -4.1408
    14.5831  14.6918  15.1928  15.2225  15.2629  15.3043  15.3181  15.4135
    15.4411  15.4850  15.5156  15.5277  15.6037  15.6294

          k =-0.5000 0.0000-0.3132 (  2120 PWs)   bands (ev):

   -26.4911 -26.4911  -5.2699  -5.2699  -4.6435  -4.6434  -4.1606  -4.1604
    14.5508  14.5508  15.1416  15.1421  15.2890  15.2894  15.3569  15.3570
    15.4200  15.4200  15.5245  15.5250  15.6190  15.6191

          k =-0.5000-0.8660 0.0000 (  2124 PWs)   bands (ev):

   -26.5266 -26.4554  -5.3722  -5.0710  -4.8254  -4.5033  -4.2740  -4.0911
    14.0641  14.2982  14.5276  15.2624  15.3176  15.3420  15.3876  15.3932
    15.4490  15.4639  15.5399  15.5563  15.6228  15.6260

          k =-0.5000-0.8660 0.1566 (  2098 PWs)   bands (ev):

   -26.5162 -26.4658  -5.4711  -5.2443  -4.5865  -4.4455  -4.2073  -4.1541
    13.6463  14.1447  15.1674  15.2305  15.3019  15.3432  15.3773  15.4077
    15.4107  15.4720  15.5355  15.5396  15.6112  15.6204

          k =-0.5000-0.8660-0.3132 (  2100 PWs)   bands (ev):

   -26.4910 -26.4910  -5.4586  -5.4586  -4.3024  -4.3024  -4.2794  -4.2793
    13.7922  13.7922  15.1121  15.1122  15.3549  15.3551  15.3720  15.3722
    15.4622  15.4623  15.5065  15.5070  15.6075  15.6076

          k = 0.0000-0.2887 0.1566 (  2100 PWs)   bands (ev):

   -26.6102 -26.4951  -5.2148  -4.7358  -4.5773  -4.2842  -4.0462  -4.0450
    13.2089  14.6679  15.0421  15.2014  15.2583  15.3067  15.3829  15.4088
    15.4174  15.4649  15.4969  15.5193  15.5534  15.5939

          k =-0.2500-0.1443 0.1566 (  2100 PWs)   bands (ev):

   -26.6102 -26.4951  -5.2149  -4.7357  -4.5773  -4.2842  -4.0463  -4.0449
    13.2088  14.6679  15.0423  15.2014  15.2580  15.3064  15.3827  15.4088
    15.4177  15.4651  15.4971  15.5195  15.5532  15.5938

          k =-0.2500-0.4330 0.1566 (  2104 PWs)   bands (ev):

   -26.5168 -26.4653  -5.2090  -5.1653  -4.7177  -4.5628  -4.3798  -4.1409
    14.5833  14.6918  15.1931  15.2223  15.2632  15.3042  15.3182  15.4136
    15.4407  15.4849  15.5153  15.5278  15.6034  15.6293

          k =-0.2500 0.4330 0.1566 (  2104 PWs)   bands (ev):

   -26.5168 -26.4653  -5.2091  -5.1652  -4.7178  -4.5630  -4.3798  -4.1408
    14.5831  14.6918  15.1927  15.2223  15.2628  15.3044  15.3182  15.4136
    15.4412  15.4849  15.5158  15.5278  15.6037  15.6294

          k =-0.2500 0.1443 0.1566 (  2100 PWs)   bands (ev):

   -26.6102 -26.4951  -5.2149  -4.7355  -4.5773  -4.2843  -4.0463  -4.0450
    13.2090  14.6676  15.0424  15.2015  15.2578  15.3060  15.3826  15.4087
    15.4179  15.4653  15.4973  15.5197  15.5529  15.5939

          k = 0.5000-0.0000 0.1566 (  2104 PWs)   bands (ev):

   -26.5168 -26.4653  -5.2090  -5.1652  -4.7178  -4.5631  -4.3798  -4.1407
    14.5831  14.6918  15.1930  15.2224  15.2630  15.3043  15.3181  15.4136
    15.4408  15.4851  15.5154  15.5277  15.6034  15.6294

     the Fermi energy is    15.4913 ev

!    total energy              =   -1366.92128583 Ry
     Harris-Foulkes estimate   =   -1366.92128609 Ry
     estimated scf accuracy    <       0.00000021 Ry

     total all-electron energy =     -1366.921286 Ry

     The total energy is the sum of the following terms:

     one-electron contribution =    -171.18627493 Ry
     hartree contribution      =     115.43117048 Ry
     xc contribution           =     -45.36163140 Ry
     ewald contribution        =    -333.82469986 Ry
     one-center paw contrib.   =    -931.94560586 Ry
     smearing contrib. (-TS)   =      -0.03424426 Ry

     convergence has been achieved in  38 iterations

     Forces acting on atoms (cartesian axes, Ry/au):

     atom    1 type  1   force =    -0.00000177    0.00005324   -0.00124230
     atom    2 type  1   force =     0.00000177   -0.00005324    0.00124230

     Total force =     0.001758     Total SCF correction =     0.003702
     SCF correction compared to forces is large: reduce conv_thr to get better values

     number of scf cycles    =   2
     number of bfgs steps    =   1

     energy   old            =   -1366.9212858275 Ry
     energy   new            =   -1366.9212858275 Ry

     CASE: energy  _new < energy  _old


     WARNING: unexpected behaviour in update_inverse_hessian
              resetting bfgs history

     small trust_radius: resetting bfgs history

     new trust radius        =       0.0001000000 bohr

     total cpu time spent up to now is      174.1 secs

     End of self-consistent calculation

          k = 0.0000 0.0000 0.0000 (  2093 PWs)   bands (ev):

   -26.7213 -26.5038  -5.5635  -4.1399  -4.1396  -3.9082  -3.9081  -3.8405
    11.1670  13.6238  15.1812  15.2639  15.3239  15.3849  15.3852  15.4253
    15.4256  15.4610  15.4613  15.5247  15.5739  15.5742

          k = 0.0000 0.0000 0.1566 (  2099 PWs)   bands (ev):

   -26.6901 -26.5364  -5.3388  -4.1266  -4.1065  -4.1063  -3.9427  -3.9426
    11.7566  13.6248  15.1609  15.2394  15.2948  15.3494  15.3495  15.3962
    15.3963  15.5016  15.5092  15.5094  15.6407  15.6408

          k = 0.0000 0.0000-0.3132 (  2098 PWs)   bands (ev):

   -26.6140 -26.6140  -4.7627  -4.7627  -4.0252  -4.0252  -4.0250  -4.0250
    13.0174  13.0175  15.1152  15.1154  15.3473  15.3474  15.3476  15.3477
    15.3980  15.3981  15.6232  15.6232  15.6234  15.6236

          k = 0.0000 0.2887 0.0000 (  2118 PWs)   bands (ev):

   -26.6337 -26.4709  -5.2716  -4.7758  -4.5345  -4.3322  -3.9938  -3.9818
    12.8913  14.5878  15.1490  15.2036  15.2298  15.3014  15.3867  15.4395
    15.4737  15.4752  15.5000  15.5088  15.5212  15.6156

          k = 0.0000 0.2887 0.1566 (  2100 PWs)   bands (ev):

   -26.6102 -26.4951  -5.2149  -4.7356  -4.5772  -4.2842  -4.0463  -4.0450
    13.2089  14.6678  15.0425  15.2016  15.2577  15.3060  15.3827  15.4088
    15.4179  15.4653  15.4974  15.5197  15.5527  15.5940

          k = 0.0000 0.2887-0.3132 (  2086 PWs)   bands (ev):

   -26.5530 -26.5530  -5.0096  -5.0095  -4.2829  -4.2827  -4.1662  -4.1662
    14.0508  14.0510  15.0954  15.0955  15.3081  15.3085  15.3827  15.3833
    15.4211  15.4214  15.4765  15.4767  15.5920  15.5921

          k = 0.0000-0.5774 0.0000 (  2124 PWs)   bands (ev):

   -26.5265 -26.4555  -5.3722  -5.0712  -4.8248  -4.5032  -4.2746  -4.0911
    14.0641  14.2988  14.5287  15.2625  15.3174  15.3420  15.3876  15.3934
    15.4491  15.4640  15.5398  15.5563  15.6227  15.6259

          k = 0.0000-0.5774 0.1566 (  2098 PWs)   bands (ev):

   -26.5161 -26.4659  -5.4711  -5.2446  -4.5861  -4.4454  -4.2076  -4.1541
    13.6465  14.1445  15.1675  15.2303  15.3021  15.3433  15.3774  15.4078
    15.4107  15.4721  15.5354  15.5396  15.6112  15.6204

          k = 0.0000-0.5774-0.3132 (  2100 PWs)   bands (ev):

   -26.4910 -26.4910  -5.4589  -5.4587  -4.3023  -4.3023  -4.2792  -4.2791
    13.7918  13.7918  15.1121  15.1122  15.3549  15.3553  15.3720  15.3722
    15.4623  15.4623  15.5064  15.5073  15.6073  15.6077

          k = 0.2500 0.1443 0.0000 (  2118 PWs)   bands (ev):

   -26.6337 -26.4709  -5.2716  -4.7759  -4.5345  -4.3321  -3.9937  -3.9818
    12.8912  14.5878  15.1487  15.2036  15.2299  15.3016  15.3864  15.4395
    15.4740  15.4755  15.4999  15.5090  15.5211  15.6154

          k = 0.2500 0.1443 0.1566 (  2100 PWs)   bands (ev):

   -26.6102 -26.4951  -5.2149  -4.7357  -4.5773  -4.2842  -4.0463  -4.0449
    13.2089  14.6679  15.0424  15.2014  15.2578  15.3063  15.3826  15.4087
    15.4178  15.4653  15.4973  15.5197  15.5530  15.5938

          k = 0.2500 0.1443-0.3132 (  2086 PWs)   bands (ev):

   -26.5530 -26.5530  -5.0096  -5.0096  -4.2828  -4.2828  -4.1662  -4.1662
    14.0508  14.0510  15.0954  15.0956  15.3080  15.3082  15.3828  15.3830
    15.4212  15.4214  15.4766  15.4767  15.5920  15.5921

          k = 0.2500 0.4330 0.0000 (  2111 PWs)   bands (ev):

   -26.5274 -26.4547  -5.1221  -4.9836  -4.8361  -4.6292  -4.3707  -4.2618
    14.5535  14.9518  15.2154  15.2155  15.2638  15.3217  15.3795  15.4507
    15.4732  15.4902  15.5808  15.5846  15.5920  15.6206

          k = 0.2500 0.4330 0.1566 (  2104 PWs)   bands (ev):

   -26.5168 -26.4653  -5.2091  -5.1653  -4.7177  -4.5627  -4.3798  -4.1409
    14.5833  14.6918  15.1928  15.2225  15.2627  15.3043  15.3182  15.4134
    15.4412  15.4850  15.5157  15.5278  15.6037  15.6294

          k = 0.2500 0.4330-0.3132 (  2120 PWs)   bands (ev):

   -26.4911 -26.4911  -5.2701  -5.2700  -4.6432  -4.6432  -4.1606  -4.1604
    14.5507  14.5508  15.1417  15.1419  15.2891  15.2894  15.3569  15.3571
    15.4197  15.4201  15.5245  15.5251  15.6189  15.6191

          k = 0.2500-0.4330 0.0000 (  2111 PWs)   bands (ev):

   -26.5275 -26.4547  -5.1221  -4.9835  -4.8364  -4.6293  -4.3708  -4.2615
    14.5532  14.9518  15.2153  15.2154  15.2637  15.3216  15.3795  15.4508
    15.4732  15.4901  15.5809  15.5844  15.5919  15.6208

          k = 0.2500-0.4330 0.1566 (  2104 PWs)   bands (ev):

   -26.5168 -26.4653  -5.2090  -5.1652  -4.7178  -4.5631  -4.3798  -4.1407
    14.5830  14.6919  15.1932  15.2223  15.2633  15.3039  15.3182  15.4137
    15.4408  15.4851  15.5154  15.5277  15.6032  15.6293

          k = 0.2500-0.4330-0.3132 (  2120 PWs)   bands (ev):

   -26.4911 -26.4911  -5.2700  -5.2698  -4.6434  -4.6434  -4.1606  -4.1605
    14.5507  14.5508  15.1417  15.1420  15.2890  15.2894  15.3569  15.3571
    15.4199  15.4202  15.5247  15.5250  15.6189  15.6192

          k = 0.2500-0.1443 0.0000 (  2118 PWs)   bands (ev):

   -26.6337 -26.4709  -5.2717  -4.7758  -4.5344  -4.3323  -3.9937  -3.9816
    12.8912  14.5875  15.1487  15.2036  15.2298  15.3015  15.3865  15.4395
    15.4738  15.4753  15.4999  15.5089  15.5211  15.6155

          k = 0.2500-0.1443 0.1566 (  2100 PWs)   bands (ev):

   -26.6102 -26.4951  -5.2148  -4.7356  -4.5774  -4.2843  -4.0462  -4.0450
    13.2090  14.6678  15.0420  15.2013  15.2583  15.3066  15.3827  15.4088
    15.4175  15.4650  15.4970  15.5193  15.5532  15.5939

          k = 0.2500-0.1443-0.3132 (  2086 PWs)   bands (ev):

   -26.5530 -26.5530  -5.0095  -5.0093  -4.2830  -4.2829  -4.1663  -4.1663
    14.0510  14.0512  15.0951  15.0955  15.3081  15.3085  15.3828  15.3830
    15.4210  15.4214  15.4765  15.4767  15.5921  15.5922

          k =-0.5000-0.2887 0.0000 (  2124 PWs)   bands (ev):

   -26.5265 -26.4555  -5.3722  -5.0712  -4.8248  -4.5031  -4.2746  -4.0910
    14.0642  14.2988  14.5286  15.2626  15.3177  15.3418  15.3877  15.3931
    15.4487  15.4640  15.5400  15.5563  15.6228  15.6260

          k =-0.5000-0.2887 0.1566 (  2098 PWs)   bands (ev):

   -26.5161 -26.4659  -5.4711  -5.2446  -4.5861  -4.4453  -4.2076  -4.1540
    13.6465  14.1446  15.1675  15.2304  15.3023  15.3431  15.3772  15.4078
    15.4106  15.4719  15.5356  15.5395  15.6112  15.6203

          k =-0.5000-0.2887-0.3132 (  2100 PWs)   bands (ev):

   -26.4910 -26.4910  -5.4588  -5.4588  -4.3022  -4.3022  -4.2792  -4.2792
    13.7918  13.7918  15.1122  15.1123  15.3549  15.3550  15.3722  15.3723
    15.4623  15.4623  15.5066  15.5066  15.6076  15.6077

          k =-0.5000 0.0000 0.0000 (  2111 PWs)   bands (ev):

   -26.5275 -26.4547  -5.1221  -4.9835  -4.8364  -4.6293  -4.3708  -4.2615
    14.5531  14.9517  15.2153  15.2155  15.2638  15.3217  15.3795  15.4507
    15.4732  15.4902  15.5808  15.5845  15.5919  15.6206

          k =-0.5000 0.0000 0.1566 (  2104 PWs)   bands (ev):

   -26.5168 -26.4653  -5.2090  -5.1652  -4.7178  -4.5630  -4.3798  -4.1408
    14.5831  14.6918  15.1928  15.2225  15.2629  15.3043  15.3181  15.4135
    15.4411  15.4850  15.5156  15.5277  15.6037  15.6294

          k =-0.5000 0.0000-0.3132 (  2120 PWs)   bands (ev):

   -26.4911 -26.4911  -5.2699  -5.2699  -4.6435  -4.6434  -4.1606  -4.1604
    14.5508  14.5508  15.1416  15.1421  15.2890  15.2894  15.3569  15.3570
    15.4200  15.4200  15.5245  15.5250  15.6190  15.6191

          k =-0.5000-0.8660 0.0000 (  2124 PWs)   bands (ev):

   -26.5266 -26.4554  -5.3722  -5.0710  -4.8254  -4.5033  -4.2740  -4.0911
    14.0641  14.2982  14.5276  15.2624  15.3176  15.3420  15.3876  15.3932
    15.4490  15.4639  15.5399  15.5563  15.6228  15.6260

          k =-0.5000-0.8660 0.1566 (  2098 PWs)   bands (ev):

   -26.5162 -26.4658  -5.4711  -5.2443  -4.5865  -4.4455  -4.2073  -4.1541
    13.6463  14.1447  15.1674  15.2305  15.3019  15.3432  15.3773  15.4077
    15.4107  15.4720  15.5355  15.5396  15.6112  15.6204

          k =-0.5000-0.8660-0.3132 (  2100 PWs)   bands (ev):

   -26.4910 -26.4910  -5.4586  -5.4586  -4.3024  -4.3024  -4.2794  -4.2793
    13.7922  13.7922  15.1121  15.1122  15.3549  15.3551  15.3720  15.3722
    15.4622  15.4623  15.5065  15.5070  15.6075  15.6076

          k = 0.0000-0.2887 0.1566 (  2100 PWs)   bands (ev):

   -26.6102 -26.4951  -5.2148  -4.7358  -4.5773  -4.2842  -4.0462  -4.0450
    13.2089  14.6679  15.0421  15.2014  15.2583  15.3067  15.3829  15.4088
    15.4174  15.4649  15.4969  15.5193  15.5534  15.5939

          k =-0.2500-0.1443 0.1566 (  2100 PWs)   bands (ev):

   -26.6102 -26.4951  -5.2149  -4.7357  -4.5773  -4.2842  -4.0463  -4.0449
    13.2088  14.6679  15.0423  15.2014  15.2580  15.3064  15.3827  15.4088
    15.4177  15.4651  15.4971  15.5195  15.5532  15.5938

          k =-0.2500-0.4330 0.1566 (  2104 PWs)   bands (ev):

   -26.5168 -26.4653  -5.2090  -5.1653  -4.7177  -4.5628  -4.3798  -4.1409
    14.5833  14.6918  15.1931  15.2223  15.2632  15.3042  15.3182  15.4136
    15.4407  15.4849  15.5153  15.5278  15.6034  15.6293

          k =-0.2500 0.4330 0.1566 (  2104 PWs)   bands (ev):

   -26.5168 -26.4653  -5.2091  -5.1652  -4.7178  -4.5630  -4.3798  -4.1408
    14.5831  14.6918  15.1927  15.2223  15.2628  15.3044  15.3182  15.4136
    15.4412  15.4849  15.5158  15.5278  15.6037  15.6294

          k =-0.2500 0.1443 0.1566 (  2100 PWs)   bands (ev):

   -26.6102 -26.4951  -5.2149  -4.7355  -4.5773  -4.2843  -4.0463  -4.0450
    13.2090  14.6676  15.0424  15.2015  15.2578  15.3060  15.3826  15.4087
    15.4179  15.4653  15.4973  15.5197  15.5529  15.5939

          k = 0.5000-0.0000 0.1566 (  2104 PWs)   bands (ev):

   -26.5168 -26.4653  -5.2090  -5.1652  -4.7178  -4.5631  -4.3798  -4.1407
    14.5831  14.6918  15.1930  15.2224  15.2630  15.3043  15.3181  15.4136
    15.4408  15.4851  15.5154  15.5277  15.6034  15.6294

     the Fermi energy is    15.4913 ev

!    total energy              =   -1366.92128583 Ry
     Harris-Foulkes estimate   =   -1366.92128609 Ry
     estimated scf accuracy    <       0.00000021 Ry

     total all-electron energy =     -1366.921286 Ry

     The total energy is the sum of the following terms:

     one-electron contribution =    -171.18627493 Ry
     hartree contribution      =     115.43117048 Ry
     xc contribution           =     -45.36163140 Ry
     ewald contribution        =    -333.82469986 Ry
     one-center paw contrib.   =    -931.94560586 Ry
     smearing contrib. (-TS)   =      -0.03424426 Ry

     convergence has been achieved in  38 iterations

     Forces acting on atoms (cartesian axes, Ry/au):

     atom    1 type  1   force =    -0.00000177    0.00005324   -0.00124230
     atom    2 type  1   force =     0.00000177   -0.00005324    0.00124230

     Total force =     0.001758     Total SCF correction =     0.003702
     SCF correction compared to forces is large: reduce conv_thr to get better values
     new conv_thr            =       0.0000000100 Ry


ATOMIC_POSITIONS (crystal)
Gd       0.666700367   0.333300780   0.749990130
Gd       0.333299633   0.666699220   0.250009870



     Writing output data file 2240.save

     number of scf cycles    =   3
     number of bfgs steps    =   2

     energy   old            =   -1366.9212858275 Ry
     energy   new            =   -1366.9212858275 Ry

     CASE: energy  _new < energy  _old


     WARNING: unexpected behaviour in update_inverse_hessian
              resetting bfgs history

     Message from routine bfgs:
     history already reset at previous step: stopping
     small trust_radius: resetting bfgs history

     new trust radius        =       0.0001000000 bohr

     Forces acting on atoms (cartesian axes, Ry/au):

     atom    1 type  1   force =    -0.00000177    0.00005324   -0.00124230
     atom    2 type  1   force =     0.00000177   -0.00005324    0.00124230

     Total force =     0.001758     Total SCF correction =     0.003702
     SCF correction compared to forces is large: reduce conv_thr to get better values

     bfgs converged in   4 scf cycles and   3 bfgs steps
     (criteria: energy <  1.0E-04 Ry, force <  1.0E-03 Ry/Bohr)

     End of BFGS Geometry Optimization

     Final energy   =   -1366.9212858275 Ry
Begin final coordinates

ATOMIC_POSITIONS (crystal)
Gd       0.666700000   0.333300000   0.750000000
Gd       0.333300000   0.666700000   0.250000000
End final coordinates



     Writing output data file 2240.save
     new conv_thr            =       0.0000000100 Ry


ATOMIC_POSITIONS (crystal)
Gd       0.666700367   0.333300780   0.749990130
Gd       0.333299633   0.666699220   0.250009870



     Writing output data file 2240.save
