

     Program PWSCF v.6.1 (svn rev. 13369) starts on  3Jul2022 at 12:25:51 

     This program is part of the open-source Quantum ESPRESSO suite
     for quantum simulation of materials; please cite
         "P. Giannozzi et al., J. Phys.:Condens. Matter 21 395502 (2009);
          URL http://www.quantum-espresso.org", 
     in publications or presentations arising from this work. More details at
     http://www.quantum-espresso.org/quote

     Parallel version (MPI), running on     1 processors




     Program PWSCF v.6.1 (svn rev. 13369) starts on  3Jul2022 at 12:25:51 

     This program is part of the open-source Quantum ESPRESSO suite
     for quantum simulation of materials; please cite

     Program PWSCF v.6.1 (svn rev. 13369) starts on  3Jul2022 at 12:25:51 

     This program is part of the open-source Quantum ESPRESSO suite
     for quantum simulation of materials; please cite
         "P. Giannozzi et al., J. Phys.:Condens. Matter 21 395502 (2009);
          URL http://www.quantum-espresso.org", 
     in publications or presentations arising from this work. More details at
     http://www.quantum-espresso.org/quote

     Parallel version (MPI), running on     1 processors

     Program PWSCF v.6.1 (svn rev. 13369) starts on  3Jul2022 at 12:25:51 

     This program is part of the open-source Quantum ESPRESSO suite
     for quantum simulation of materials; please cite
         "P. Giannozzi et al., J. Phys.:Condens. Matter 21 395502 (2009);
          URL http://www.quantum-espresso.org", 
     in publications or presentations arising from this work. More details at
     http://www.quantum-espresso.org/quote

     Parallel version (MPI), running on     1 processors

     Program PWSCF v.6.1 (svn rev. 13369) starts on  3Jul2022 at 12:25:51 

     This program is part of the open-source Quantum ESPRESSO suite
     for quantum simulation of materials; please cite
         "P. Giannozzi et al., J. Phys.:Condens. Matter 21 395502 (2009);
          URL http://www.quantum-espresso.org", 
     in publications or presentations arising from this work. More details at
     http://www.quantum-espresso.org/quote

     Parallel version (MPI), running on     1 processors

     Program PWSCF v.6.1 (svn rev. 13369) starts on  3Jul2022 at 12:25:51 

     This program is part of the open-source Quantum ESPRESSO suite
     for quantum simulation of materials; please cite
         "P. Giannozzi et al., J. Phys.:Condens. Matter 21 395502 (2009);
          URL http://www.quantum-espresso.org", 
     in publications or presentations arising from this work. More details at
     http://www.quantum-espresso.org/quote

     Parallel version (MPI), running on     1 processors

     Program PWSCF v.6.1 (svn rev. 13369) starts on  3Jul2022 at 12:25:51 

     This program is part of the open-source Quantum ESPRESSO suite
     for quantum simulation of materials; please cite
         "P. Giannozzi et al., J. Phys.:Condens. Matter 21 395502 (2009);
          URL http://www.quantum-espresso.org", 
     in publications or presentations arising from this work. More details at
     http://www.quantum-espresso.org/quote

     Parallel version (MPI), running on     1 processors

     Program PWSCF v.6.1 (svn rev. 13369) starts on  3Jul2022 at 12:25:51 

     This program is part of the open-source Quantum ESPRESSO suite
     for quantum simulation of materials; please cite
         "P. Giannozzi et al., J. Phys.:Condens. Matter 21 395502 (2009);
          URL http://www.quantum-espresso.org", 
     in publications or presentations arising from this work. More details at
     http://www.quantum-espresso.org/quote

     Parallel version (MPI), running on     1 processors

     Program PWSCF v.6.1 (svn rev. 13369) starts on  3Jul2022 at 12:25:51 

     This program is part of the open-source Quantum ESPRESSO suite
     for quantum simulation of materials; please cite
         "P. Giannozzi et al., J. Phys.:Condens. Matter 21 395502 (2009);
          URL http://www.quantum-espresso.org", 
     in publications or presentations arising from this work. More details at
     http://www.quantum-espresso.org/quote

     Parallel version (MPI), running on     1 processors

     Program PWSCF v.6.1 (svn rev. 13369) starts on  3Jul2022 at 12:25:51 

     This program is part of the open-source Quantum ESPRESSO suite
     for quantum simulation of materials; please cite
         "P. Giannozzi et al., J. Phys.:Condens. Matter 21 395502 (2009);
          URL http://www.quantum-espresso.org", 
     in publications or presentations arising from this work. More details at
     http://www.quantum-espresso.org/quote

     Parallel version (MPI), running on     1 processors
     Program PWSCF v.6.1 (svn rev. 13369) starts on  3Jul2022 at 12:25:51 

     This program is part of the open-source Quantum ESPRESSO suite
     for quantum simulation of materials; please cite
         "P. Giannozzi et al., J. Phys.:Condens. Matter 21 395502 (2009);
          URL http://www.quantum-espresso.org", 
     in publications or presentations arising from this work. More details at
     http://www.quantum-espresso.org/quote

     Parallel version (MPI), running on     1 processors

     Program PWSCF v.6.1 (svn rev. 13369) starts on  3Jul2022 at 12:25:51 

     This program is part of the open-source Quantum ESPRESSO suite
     for quantum simulation of materials; please cite
         "P. Giannozzi et al., J. Phys.:Condens. Matter 21 395502 (2009);
          URL http://www.quantum-espresso.org", 
     in publications or presentations arising from this work. More details at
     http://www.quantum-espresso.org/quote

     Parallel version (MPI), running on     1 processors
     Program PWSCF v.6.1 (svn rev. 13369) starts on  3Jul2022 at 12:25:51 

     This program is part of the open-source Quantum ESPRESSO suite
     for quantum simulation of materials; please cite
         "P. Giannozzi et al., J. Phys.:Condens. Matter 21 395502 (2009);
          URL http://www.quantum-espresso.org", 
     in publications or presentations arising from this work. More details at
     http://www.quantum-espresso.org/quote

     Parallel version (MPI), running on     1 processors
     Program PWSCF v.6.1 (svn rev. 13369) starts on  3Jul2022 at 12:25:51 

     This program is part of the open-source Quantum ESPRESSO suite
     for quantum simulation of materials; please cite
         "P. Giannozzi et al., J. Phys.:Condens. Matter 21 395502 (2009);
          URL http://www.quantum-espresso.org", 
     in publications or presentations arising from this work. More details at
     http://www.quantum-espresso.org/quote

     Parallel version (MPI), running on     1 processors
     Program PWSCF v.6.1 (svn rev. 13369) starts on  3Jul2022 at 12:25:51 

     This program is part of the open-source Quantum ESPRESSO suite
     for quantum simulation of materials; please cite
         "P. Giannozzi et al., J. Phys.:Condens. Matter 21 395502 (2009);
          URL http://www.quantum-espresso.org", 
     in publications or presentations arising from this work. More details at
     http://www.quantum-espresso.org/quote

     Parallel version (MPI), running on     1 processors
         "P. Giannozzi et al., J. Phys.:Condens. Matter 21 395502 (2009);
          URL http://www.quantum-espresso.org", 
     in publications or presentations arising from this work. More details at
     http://www.quantum-espresso.org/quote

     Parallel version (MPI), running on     1 processors

     Program PWSCF v.6.1 (svn rev. 13369) starts on  3Jul2022 at 12:25:51 

     This program is part of the open-source Quantum ESPRESSO suite
     for quantum simulation of materials; please cite
         "P. Giannozzi et al., J. Phys.:Condens. Matter 21 395502 (2009);
          URL http://www.quantum-espresso.org", 
     in publications or presentations arising from this work. More details at
     http://www.quantum-espresso.org/quote

     Parallel version (MPI), running on     1 processors
     Reading input from ./Gd_1.1.in
     Reading input from ./Gd_1.1.in
     Reading input from ./Gd_1.1.in
     Reading input from ./Gd_1.1.in
     Reading input from ./Gd_1.1.in
     Reading input from ./Gd_1.1.in
     Reading input from ./Gd_1.1.in
     Reading input from ./Gd_1.1.in
     Reading input from ./Gd_1.1.in
     Reading input from ./Gd_1.1.in
Warning: card &CELL ignored
Warning: card / ignored
Warning: card &CELL ignored
Warning: card / ignored
Warning: card H 1.00794 H.PBE-RRKJUS_PSL.1.0.0.UPF ignored
Warning: card H 1.00794 H.PBE-RRKJUS_PSL.1.0.0.UPF ignored
     Reading input from ./Gd_1.1.in
     Reading input from ./Gd_1.1.in
     Reading input from ./Gd_1.1.in
     Reading input from ./Gd_1.1.in
     Reading input from ./Gd_1.1.in
     Reading input from ./Gd_1.1.in
Warning: card &CELL ignored
Warning: card / ignored
Warning: card H 1.00794 H.PBE-RRKJUS_PSL.1.0.0.UPF ignored
Warning: card &CELL ignored
Warning: card / ignored
Warning: card H 1.00794 H.PBE-RRKJUS_PSL.1.0.0.UPF ignored
Warning: card &CELL ignored
Warning: card / ignored
Warning: card H 1.00794 H.PBE-RRKJUS_PSL.1.0.0.UPF ignored
Warning: card &CELL ignored
Warning: card / ignored
Warning: card &CELL ignored
Warning: card / ignored
Warning: card &CELL ignored
Warning: card / ignored
Warning: card &CELL ignored
Warning: card / ignored
Warning: card H 1.00794 H.PBE-RRKJUS_PSL.1.0.0.UPF ignored
Warning: card H 1.00794 H.PBE-RRKJUS_PSL.1.0.0.UPF ignored
Warning: card H 1.00794 H.PBE-RRKJUS_PSL.1.0.0.UPF ignored
Warning: card H 1.00794 H.PBE-RRKJUS_PSL.1.0.0.UPF ignored
Warning: card &CELL ignored
Warning: card / ignored
Warning: card H 1.00794 H.PBE-RRKJUS_PSL.1.0.0.UPF ignored
Warning: card &CELL ignored
Warning: card / ignored
Warning: card H 1.00794 H.PBE-RRKJUS_PSL.1.0.0.UPF ignored
Warning: card &CELL ignored
Warning: card / ignored
Warning: card &CELL ignored
Warning: card / ignored
Warning: card H 1.00794 H.PBE-RRKJUS_PSL.1.0.0.UPF ignored
Warning: card &CELL ignored
Warning: card / ignored
Warning: card H 1.00794 H.PBE-RRKJUS_PSL.1.0.0.UPF ignored
Warning: card H 1.00794 H.PBE-RRKJUS_PSL.1.0.0.UPF ignored
Warning: card &CELL ignored
Warning: card / ignored
Warning: card H 1.00794 H.PBE-RRKJUS_PSL.1.0.0.UPF ignored
Warning: card &CELL ignored
Warning: card / ignored
Warning: card H 1.00794 H.PBE-RRKJUS_PSL.1.0.0.UPF ignored

     Current dimensions of program PWSCF are:
     Max number of different atomic species (ntypx) = 10
     Max number of k-points (npk) =  40000
     Max angular momentum in pseudopotentials (lmaxx) =  3


     Current dimensions of program PWSCF are:
     Max number of different atomic species (ntypx) = 10
     Max number of k-points (npk) =  40000
     Max angular momentum in pseudopotentials (lmaxx) =  3


     Current dimensions of program PWSCF are:
     Max number of different atomic species (ntypx) = 10
     Max number of k-points (npk) =  40000
     Max angular momentum in pseudopotentials (lmaxx) =  3

     Current dimensions of program PWSCF are:
     Max number of different atomic species (ntypx) = 10
     Max number of k-points (npk) =  40000
     Max angular momentum in pseudopotentials (lmaxx) =  3

     Current dimensions of program PWSCF are:
     Max number of different atomic species (ntypx) = 10
     Max number of k-points (npk) =  40000
     Max angular momentum in pseudopotentials (lmaxx) =  3




     Current dimensions of program PWSCF are:
     Max number of different atomic species (ntypx) = 10
     Max number of k-points (npk) =  40000
     Max angular momentum in pseudopotentials (lmaxx) =  3
     Current dimensions of program PWSCF are:
     Max number of different atomic species (ntypx) = 10
     Max number of k-points (npk) =  40000
     Max angular momentum in pseudopotentials (lmaxx) =  3

     Current dimensions of program PWSCF are:
     Max number of different atomic species (ntypx) = 10
     Max number of k-points (npk) =  40000
     Max angular momentum in pseudopotentials (lmaxx) =  3
     Current dimensions of program PWSCF are:
     Max number of different atomic species (ntypx) = 10
     Max number of k-points (npk) =  40000
     Max angular momentum in pseudopotentials (lmaxx) =  3
     Current dimensions of program PWSCF are:
     Max number of different atomic species (ntypx) = 10
     Max number of k-points (npk) =  40000
     Max angular momentum in pseudopotentials (lmaxx) =  3

     Current dimensions of program PWSCF are:
     Max number of different atomic species (ntypx) = 10
     Max number of k-points (npk) =  40000
     Max angular momentum in pseudopotentials (lmaxx) =  3
     Current dimensions of program PWSCF are:
     Max number of different atomic species (ntypx) = 10
     Max number of k-points (npk) =  40000
     Max angular momentum in pseudopotentials (lmaxx) =  3

     Current dimensions of program PWSCF are:
     Max number of different atomic species (ntypx) = 10
     Max number of k-points (npk) =  40000
     Max angular momentum in pseudopotentials (lmaxx) =  3

     Current dimensions of program PWSCF are:
     Max number of different atomic species (ntypx) = 10
     Max number of k-points (npk) =  40000
     Max angular momentum in pseudopotentials (lmaxx) =  3
     Current dimensions of program PWSCF are:
     Max number of different atomic species (ntypx) = 10
     Max number of k-points (npk) =  40000
     Max angular momentum in pseudopotentials (lmaxx) =  3

     Current dimensions of program PWSCF are:
     Max number of different atomic species (ntypx) = 10
     Max number of k-points (npk) =  40000
     Max angular momentum in pseudopotentials (lmaxx) =  3
               file Gd.GGA-PBE-paw-v1.0.UPF: wavefunction(s)  Xn Xn Xn Xn Xn Xn renormalized

     Subspace diagonalization in iterative solution of the eigenvalue problem:
     a serial algorithm will be used

 
     G-vector sticks info
     --------------------
     sticks:   dense  smooth     PW     G-vecs:    dense   smooth      PW
     Sum         673     673    199                23115    23115    3669
 


     bravais-lattice index     =            0
     lattice parameter (alat)  =       7.0498  a.u.
     unit-cell volume          =     484.4645 (a.u.)^3
     number of atoms/cell      =            2
     number of atomic types    =            1
     number of electrons       =        36.00
     number of Kohn-Sham states=           22
     kinetic-energy cutoff     =      50.0000  Ry
     charge density cutoff     =     200.0000  Ry
     convergence threshold     =      1.0E-06
     mixing beta               =       0.7000
     number of iterations used =            8  plain     mixing
     Exchange-correlation      = SLA PW PBX PBC ( 1  4  3  4 0 0)
     nstep                     =          150


     celldm(1)=   7.049812  celldm(2)=   0.000000  celldm(3)=   0.000000
     celldm(4)=   0.000000  celldm(5)=   0.000000  celldm(6)=   0.000000

     crystal axes: (cart. coord. in units of alat)
               a(1) = (   1.000000   0.000000   0.000000 )  
               a(2) = (  -0.500000   0.866027   0.000000 )  
               a(3) = (   0.000000   0.000000   1.596606 )  

     reciprocal axes: (cart. coord. in units 2 pi/alat)
               b(1) = (  1.000000  0.577349  0.000000 )  
               b(2) = (  0.000000  1.154699  0.000000 )  
               b(3) = (  0.000000  0.000000  0.626328 )  


     PseudoPot. # 1 for Gd read from file:
     /home/shaharpit/AcHProject/meam_fit/dft/qe_potentials/Gd.GGA-PBE-paw-v1.0.UPF
     MD5 check sum: 3e8e0d208da550914ae52eaf991d13de
     Pseudo is Projector augmented-wave + core cor, Zval = 18.0
     Generated using ATOMPAW code
     Shape of augmentation charge: BESSEL
     Using radial grid of 1110 points,  8 beta functions with: 
                l(1) =   0
                l(2) =   0
                l(3) =   1
                l(4) =   1
                l(5) =   2
                l(6) =   2
                l(7) =   3
                l(8) =   3
     Q(r) pseudized with 0 coefficients 


     atomic species   valence    mass     pseudopotential
        Gd            18.00   157.25000     Gd( 1.00)

      4 Sym. Ops., with inversion, found ( 2 have fractional translation)



   Cartesian axes

     site n.     atom                  positions (alat units)
         1           Gd  tau(   1) = (   0.5000500   0.2886468   1.1974548  )
         2           Gd  tau(   2) = (  -0.0000500   0.5773801   0.3991516  )

     number of k points=    30  gaussian smearing, width (Ry)=  0.0100
                       cart. coord. in units 2pi/alat
        k(    1) = (   0.0000000   0.0000000   0.0000000), wk =   0.0312500
        k(    2) = (   0.0000000   0.0000000   0.1565821), wk =   0.0625000
        k(    3) = (   0.0000000   0.0000000  -0.3131642), wk =   0.0312500
        k(    4) = (   0.0000000   0.2886746   0.0000000), wk =   0.0625000
        k(    5) = (   0.0000000   0.2886746   0.1565821), wk =   0.1250000
        k(    6) = (   0.0000000   0.2886746  -0.3131642), wk =   0.0625000
        k(    7) = (   0.0000000  -0.5773493   0.0000000), wk =   0.0312500
        k(    8) = (   0.0000000  -0.5773493   0.1565821), wk =   0.0625000
        k(    9) = (   0.0000000  -0.5773493  -0.3131642), wk =   0.0312500
        k(   10) = (   0.2500000   0.1443373   0.0000000), wk =   0.0625000
        k(   11) = (   0.2500000   0.1443373   0.1565821), wk =   0.1250000
        k(   12) = (   0.2500000   0.1443373  -0.3131642), wk =   0.0625000
        k(   13) = (   0.2500000   0.4330119   0.0000000), wk =   0.0625000
        k(   14) = (   0.2500000   0.4330119   0.1565821), wk =   0.1250000
        k(   15) = (   0.2500000   0.4330119  -0.3131642), wk =   0.0625000
        k(   16) = (  -0.5000000  -0.2886746   0.0000000), wk =   0.0312500
        k(   17) = (  -0.5000000  -0.2886746   0.1565821), wk =   0.0625000
        k(   18) = (  -0.5000000  -0.2886746  -0.3131642), wk =   0.0312500
        k(   19) = (  -0.5000000   0.0000000   0.0000000), wk =   0.0625000
        k(   20) = (  -0.5000000   0.0000000   0.1565821), wk =   0.1250000
        k(   21) = (  -0.5000000   0.0000000  -0.3131642), wk =   0.0625000
        k(   22) = (  -0.2500000   0.1443373   0.0000000), wk =   0.0625000
        k(   23) = (  -0.2500000   0.1443373  -0.1565821), wk =   0.1250000
        k(   24) = (  -0.2500000   0.1443373   0.3131642), wk =   0.0625000
        k(   25) = (  -0.2500000   0.4330119   0.0000000), wk =   0.0625000
        k(   26) = (  -0.2500000   0.4330119  -0.1565821), wk =   0.1250000
        k(   27) = (  -0.2500000   0.4330119   0.3131642), wk =   0.0625000
        k(   28) = (   0.5000000  -0.2886746   0.0000000), wk =   0.0312500
        k(   29) = (   0.5000000  -0.2886746  -0.1565821), wk =   0.0625000
        k(   30) = (   0.5000000  -0.2886746   0.3131642), wk =   0.0312500

     Dense  grid:    23115 G-vectors     FFT dimensions: (  32,  32,  54)

     Estimated max dynamical RAM per process >      54.00MB
               file Gd.GGA-PBE-paw-v1.0.UPF: wavefunction(s)  Xn Xn Xn Xn Xn Xn renormalized

     Subspace diagonalization in iterative solution of the eigenvalue problem:
     a serial algorithm will be used

 
     G-vector sticks info
     --------------------
     sticks:   dense  smooth     PW     G-vecs:    dense   smooth      PW
     Sum         673     673    199                23115    23115    3669
 


     bravais-lattice index     =            0
     lattice parameter (alat)  =       7.0498  a.u.
     unit-cell volume          =     484.4645 (a.u.)^3
     number of atoms/cell      =            2
     number of atomic types    =            1
     number of electrons       =        36.00
     number of Kohn-Sham states=           22
     kinetic-energy cutoff     =      50.0000  Ry
     charge density cutoff     =     200.0000  Ry
     convergence threshold     =      1.0E-06
     mixing beta               =       0.7000
     number of iterations used =            8  plain     mixing
     Exchange-correlation      = SLA PW PBX PBC ( 1  4  3  4 0 0)
     nstep                     =          150


     celldm(1)=   7.049812  celldm(2)=   0.000000  celldm(3)=   0.000000
     celldm(4)=   0.000000  celldm(5)=   0.000000  celldm(6)=   0.000000

     crystal axes: (cart. coord. in units of alat)
               a(1) = (   1.000000   0.000000   0.000000 )  
               a(2) = (  -0.500000   0.866027   0.000000 )  
               a(3) = (   0.000000   0.000000   1.596606 )  

     reciprocal axes: (cart. coord. in units 2 pi/alat)
               b(1) = (  1.000000  0.577349  0.000000 )  
               b(2) = (  0.000000  1.154699  0.000000 )  
               b(3) = (  0.000000  0.000000  0.626328 )  


     PseudoPot. # 1 for Gd read from file:
     /home/shaharpit/AcHProject/meam_fit/dft/qe_potentials/Gd.GGA-PBE-paw-v1.0.UPF
     MD5 check sum: 3e8e0d208da550914ae52eaf991d13de
     Pseudo is Projector augmented-wave + core cor, Zval = 18.0
     Generated using ATOMPAW code
     Shape of augmentation charge: BESSEL
     Using radial grid of 1110 points,  8 beta functions with: 
                l(1) =   0
                l(2) =   0
                l(3) =   1
                l(4) =   1
                l(5) =   2
                l(6) =   2
                l(7) =   3
                l(8) =   3
     Q(r) pseudized with 0 coefficients 


     atomic species   valence    mass     pseudopotential
        Gd            18.00   157.25000     Gd( 1.00)

      4 Sym. Ops., with inversion, found ( 2 have fractional translation)



   Cartesian axes

     site n.     atom                  positions (alat units)
         1           Gd  tau(   1) = (   0.5000500   0.2886468   1.1974548  )
         2           Gd  tau(   2) = (  -0.0000500   0.5773801   0.3991516  )

     number of k points=    30  gaussian smearing, width (Ry)=  0.0100
                       cart. coord. in units 2pi/alat
        k(    1) = (   0.0000000   0.0000000   0.0000000), wk =   0.0312500
        k(    2) = (   0.0000000   0.0000000   0.1565821), wk =   0.0625000
        k(    3) = (   0.0000000   0.0000000  -0.3131642), wk =   0.0312500
        k(    4) = (   0.0000000   0.2886746   0.0000000), wk =   0.0625000
        k(    5) = (   0.0000000   0.2886746   0.1565821), wk =   0.1250000
        k(    6) = (   0.0000000   0.2886746  -0.3131642), wk =   0.0625000
        k(    7) = (   0.0000000  -0.5773493   0.0000000), wk =   0.0312500
        k(    8) = (   0.0000000  -0.5773493   0.1565821), wk =   0.0625000
        k(    9) = (   0.0000000  -0.5773493  -0.3131642), wk =   0.0312500
        k(   10) = (   0.2500000   0.1443373   0.0000000), wk =   0.0625000
        k(   11) = (   0.2500000   0.1443373   0.1565821), wk =   0.1250000
        k(   12) = (   0.2500000   0.1443373  -0.3131642), wk =   0.0625000
        k(   13) = (   0.2500000   0.4330119   0.0000000), wk =   0.0625000
        k(   14) = (   0.2500000   0.4330119   0.1565821), wk =   0.1250000
        k(   15) = (   0.2500000   0.4330119  -0.3131642), wk =   0.0625000
        k(   16) = (  -0.5000000  -0.2886746   0.0000000), wk =   0.0312500
        k(   17) = (  -0.5000000  -0.2886746   0.1565821), wk =   0.0625000
        k(   18) = (  -0.5000000  -0.2886746  -0.3131642), wk =   0.0312500
        k(   19) = (  -0.5000000   0.0000000   0.0000000), wk =   0.0625000
        k(   20) = (  -0.5000000   0.0000000   0.1565821), wk =   0.1250000
        k(   21) = (  -0.5000000   0.0000000  -0.3131642), wk =   0.0625000
        k(   22) = (  -0.2500000   0.1443373   0.0000000), wk =   0.0625000
        k(   23) = (  -0.2500000   0.1443373  -0.1565821), wk =   0.1250000
        k(   24) = (  -0.2500000   0.1443373   0.3131642), wk =   0.0625000
        k(   25) = (  -0.2500000   0.4330119   0.0000000), wk =   0.0625000
        k(   26) = (  -0.2500000   0.4330119  -0.1565821), wk =   0.1250000
        k(   27) = (  -0.2500000   0.4330119   0.3131642), wk =   0.0625000
        k(   28) = (   0.5000000  -0.2886746   0.0000000), wk =   0.0312500
        k(   29) = (   0.5000000  -0.2886746  -0.1565821), wk =   0.0625000
        k(   30) = (   0.5000000  -0.2886746   0.3131642), wk =   0.0312500

     Dense  grid:    23115 G-vectors     FFT dimensions: (  32,  32,  54)

     Estimated max dynamical RAM per process >      54.00MB
               file Gd.GGA-PBE-paw-v1.0.UPF: wavefunction(s)  Xn Xn Xn Xn Xn Xn renormalized

     Subspace diagonalization in iterative solution of the eigenvalue problem:
     a serial algorithm will be used

 
     G-vector sticks info
     --------------------
     sticks:   dense  smooth     PW     G-vecs:    dense   smooth      PW
     Sum         673     673    199                23115    23115    3669
 


     bravais-lattice index     =            0
     lattice parameter (alat)  =       7.0498  a.u.
     unit-cell volume          =     484.4645 (a.u.)^3
     number of atoms/cell      =            2
     number of atomic types    =            1
     number of electrons       =        36.00
     number of Kohn-Sham states=           22
     kinetic-energy cutoff     =      50.0000  Ry
     charge density cutoff     =     200.0000  Ry
     convergence threshold     =      1.0E-06
     mixing beta               =       0.7000
     number of iterations used =            8  plain     mixing
     Exchange-correlation      = SLA PW PBX PBC ( 1  4  3  4 0 0)
     nstep                     =          150


     celldm(1)=   7.049812  celldm(2)=   0.000000  celldm(3)=   0.000000
     celldm(4)=   0.000000  celldm(5)=   0.000000  celldm(6)=   0.000000

     crystal axes: (cart. coord. in units of alat)
               a(1) = (   1.000000   0.000000   0.000000 )  
               a(2) = (  -0.500000   0.866027   0.000000 )  
               a(3) = (   0.000000   0.000000   1.596606 )  

     reciprocal axes: (cart. coord. in units 2 pi/alat)
               b(1) = (  1.000000  0.577349  0.000000 )  
               b(2) = (  0.000000  1.154699  0.000000 )  
               b(3) = (  0.000000  0.000000  0.626328 )  


     PseudoPot. # 1 for Gd read from file:
     /home/shaharpit/AcHProject/meam_fit/dft/qe_potentials/Gd.GGA-PBE-paw-v1.0.UPF
     MD5 check sum: 3e8e0d208da550914ae52eaf991d13de
     Pseudo is Projector augmented-wave + core cor, Zval = 18.0
     Generated using ATOMPAW code
     Shape of augmentation charge: BESSEL
     Using radial grid of 1110 points,  8 beta functions with: 
                l(1) =   0
                l(2) =   0
                l(3) =   1
                l(4) =   1
                l(5) =   2
                l(6) =   2
                l(7) =   3
                l(8) =   3
     Q(r) pseudized with 0 coefficients 


     atomic species   valence    mass     pseudopotential
        Gd            18.00   157.25000     Gd( 1.00)

      4 Sym. Ops., with inversion, found ( 2 have fractional translation)



   Cartesian axes

     site n.     atom                  positions (alat units)
         1           Gd  tau(   1) = (   0.5000500   0.2886468   1.1974548  )
         2           Gd  tau(   2) = (  -0.0000500   0.5773801   0.3991516  )

     number of k points=    30  gaussian smearing, width (Ry)=  0.0100
                       cart. coord. in units 2pi/alat
        k(    1) = (   0.0000000   0.0000000   0.0000000), wk =   0.0312500
        k(    2) = (   0.0000000   0.0000000   0.1565821), wk =   0.0625000
        k(    3) = (   0.0000000   0.0000000  -0.3131642), wk =   0.0312500
        k(    4) = (   0.0000000   0.2886746   0.0000000), wk =   0.0625000
        k(    5) = (   0.0000000   0.2886746   0.1565821), wk =   0.1250000
        k(    6) = (   0.0000000   0.2886746  -0.3131642), wk =   0.0625000
        k(    7) = (   0.0000000  -0.5773493   0.0000000), wk =   0.0312500
        k(    8) = (   0.0000000  -0.5773493   0.1565821), wk =   0.0625000
        k(    9) = (   0.0000000  -0.5773493  -0.3131642), wk =   0.0312500
        k(   10) = (   0.2500000   0.1443373   0.0000000), wk =   0.0625000
        k(   11) = (   0.2500000   0.1443373   0.1565821), wk =   0.1250000
        k(   12) = (   0.2500000   0.1443373  -0.3131642), wk =   0.0625000
        k(   13) = (   0.2500000   0.4330119   0.0000000), wk =   0.0625000
        k(   14) = (   0.2500000   0.4330119   0.1565821), wk =   0.1250000
        k(   15) = (   0.2500000   0.4330119  -0.3131642), wk =   0.0625000
        k(   16) = (  -0.5000000  -0.2886746   0.0000000), wk =   0.0312500
        k(   17) = (  -0.5000000  -0.2886746   0.1565821), wk =   0.0625000
        k(   18) = (  -0.5000000  -0.2886746  -0.3131642), wk =   0.0312500
        k(   19) = (  -0.5000000   0.0000000   0.0000000), wk =   0.0625000
        k(   20) = (  -0.5000000   0.0000000   0.1565821), wk =   0.1250000
        k(   21) = (  -0.5000000   0.0000000  -0.3131642), wk =   0.0625000
        k(   22) = (  -0.2500000   0.1443373   0.0000000), wk =   0.0625000
        k(   23) = (  -0.2500000   0.1443373  -0.1565821), wk =   0.1250000
        k(   24) = (  -0.2500000   0.1443373   0.3131642), wk =   0.0625000
        k(   25) = (  -0.2500000   0.4330119   0.0000000), wk =   0.0625000
        k(   26) = (  -0.2500000   0.4330119  -0.1565821), wk =   0.1250000
        k(   27) = (  -0.2500000   0.4330119   0.3131642), wk =   0.0625000
        k(   28) = (   0.5000000  -0.2886746   0.0000000), wk =   0.0312500
        k(   29) = (   0.5000000  -0.2886746  -0.1565821), wk =   0.0625000
        k(   30) = (   0.5000000  -0.2886746   0.3131642), wk =   0.0312500

     Dense  grid:    23115 G-vectors     FFT dimensions: (  32,  32,  54)

     Estimated max dynamical RAM per process >      54.00MB
               file Gd.GGA-PBE-paw-v1.0.UPF: wavefunction(s)  Xn Xn Xn Xn Xn Xn renormalized

     Subspace diagonalization in iterative solution of the eigenvalue problem:
     a serial algorithm will be used

 
     G-vector sticks info
     --------------------
     sticks:   dense  smooth     PW     G-vecs:    dense   smooth      PW
     Sum         673     673    199                23115    23115    3669
 


     bravais-lattice index     =            0
     lattice parameter (alat)  =       7.0498  a.u.
     unit-cell volume          =     484.4645 (a.u.)^3
     number of atoms/cell      =            2
     number of atomic types    =            1
     number of electrons       =        36.00
     number of Kohn-Sham states=           22
     kinetic-energy cutoff     =      50.0000  Ry
     charge density cutoff     =     200.0000  Ry
     convergence threshold     =      1.0E-06
     mixing beta               =       0.7000
     number of iterations used =            8  plain     mixing
     Exchange-correlation      = SLA PW PBX PBC ( 1  4  3  4 0 0)
     nstep                     =          150


     celldm(1)=   7.049812  celldm(2)=   0.000000  celldm(3)=   0.000000
     celldm(4)=   0.000000  celldm(5)=   0.000000  celldm(6)=   0.000000

     crystal axes: (cart. coord. in units of alat)
               a(1) = (   1.000000   0.000000   0.000000 )  
               a(2) = (  -0.500000   0.866027   0.000000 )  
               a(3) = (   0.000000   0.000000   1.596606 )  

     reciprocal axes: (cart. coord. in units 2 pi/alat)
               b(1) = (  1.000000  0.577349  0.000000 )  
               b(2) = (  0.000000  1.154699  0.000000 )  
               b(3) = (  0.000000  0.000000  0.626328 )  


     PseudoPot. # 1 for Gd read from file:
     /home/shaharpit/AcHProject/meam_fit/dft/qe_potentials/Gd.GGA-PBE-paw-v1.0.UPF
     MD5 check sum: 3e8e0d208da550914ae52eaf991d13de
     Pseudo is Projector augmented-wave + core cor, Zval = 18.0
     Generated using ATOMPAW code
     Shape of augmentation charge: BESSEL
     Using radial grid of 1110 points,  8 beta functions with: 
                l(1) =   0
                l(2) =   0
                l(3) =   1
                l(4) =   1
                l(5) =   2
                l(6) =   2
                l(7) =   3
                l(8) =   3
     Q(r) pseudized with 0 coefficients 


     atomic species   valence    mass     pseudopotential
        Gd            18.00   157.25000     Gd( 1.00)

      4 Sym. Ops., with inversion, found ( 2 have fractional translation)



   Cartesian axes

     site n.     atom                  positions (alat units)
         1           Gd  tau(   1) = (   0.5000500   0.2886468   1.1974548  )
         2           Gd  tau(   2) = (  -0.0000500   0.5773801   0.3991516  )

     number of k points=    30  gaussian smearing, width (Ry)=  0.0100
                       cart. coord. in units 2pi/alat
        k(    1) = (   0.0000000   0.0000000   0.0000000), wk =   0.0312500
        k(    2) = (   0.0000000   0.0000000   0.1565821), wk =   0.0625000
        k(    3) = (   0.0000000   0.0000000  -0.3131642), wk =   0.0312500
        k(    4) = (   0.0000000   0.2886746   0.0000000), wk =   0.0625000
        k(    5) = (   0.0000000   0.2886746   0.1565821), wk =   0.1250000
        k(    6) = (   0.0000000   0.2886746  -0.3131642), wk =   0.0625000
        k(    7) = (   0.0000000  -0.5773493   0.0000000), wk =   0.0312500
        k(    8) = (   0.0000000  -0.5773493   0.1565821), wk =   0.0625000
        k(    9) = (   0.0000000  -0.5773493  -0.3131642), wk =   0.0312500
        k(   10) = (   0.2500000   0.1443373   0.0000000), wk =   0.0625000
        k(   11) = (   0.2500000   0.1443373   0.1565821), wk =   0.1250000
        k(   12) = (   0.2500000   0.1443373  -0.3131642), wk =   0.0625000
        k(   13) = (   0.2500000   0.4330119   0.0000000), wk =   0.0625000
        k(   14) = (   0.2500000   0.4330119   0.1565821), wk =   0.1250000
        k(   15) = (   0.2500000   0.4330119  -0.3131642), wk =   0.0625000
        k(   16) = (  -0.5000000  -0.2886746   0.0000000), wk =   0.0312500
        k(   17) = (  -0.5000000  -0.2886746   0.1565821), wk =   0.0625000
        k(   18) = (  -0.5000000  -0.2886746  -0.3131642), wk =   0.0312500
        k(   19) = (  -0.5000000   0.0000000   0.0000000), wk =   0.0625000
        k(   20) = (  -0.5000000   0.0000000   0.1565821), wk =   0.1250000
        k(   21) = (  -0.5000000   0.0000000  -0.3131642), wk =   0.0625000
        k(   22) = (  -0.2500000   0.1443373   0.0000000), wk =   0.0625000
        k(   23) = (  -0.2500000   0.1443373  -0.1565821), wk =   0.1250000
        k(   24) = (  -0.2500000   0.1443373   0.3131642), wk =   0.0625000
        k(   25) = (  -0.2500000   0.4330119   0.0000000), wk =   0.0625000
        k(   26) = (  -0.2500000   0.4330119  -0.1565821), wk =   0.1250000
        k(   27) = (  -0.2500000   0.4330119   0.3131642), wk =   0.0625000
        k(   28) = (   0.5000000  -0.2886746   0.0000000), wk =   0.0312500
        k(   29) = (   0.5000000  -0.2886746  -0.1565821), wk =   0.0625000
        k(   30) = (   0.5000000  -0.2886746   0.3131642), wk =   0.0312500

     Dense  grid:    23115 G-vectors     FFT dimensions: (  32,  32,  54)

     Estimated max dynamical RAM per process >      54.00MB
               file Gd.GGA-PBE-paw-v1.0.UPF: wavefunction(s)  Xn Xn Xn Xn Xn Xn renormalized

     Subspace diagonalization in iterative solution of the eigenvalue problem:
     a serial algorithm will be used

 
     G-vector sticks info
     --------------------
     sticks:   dense  smooth     PW     G-vecs:    dense   smooth      PW
     Sum         673     673    199                23115    23115    3669
 


     bravais-lattice index     =            0
     lattice parameter (alat)  =       7.0498  a.u.
     unit-cell volume          =     484.4645 (a.u.)^3
     number of atoms/cell      =            2
     number of atomic types    =            1
     number of electrons       =        36.00
     number of Kohn-Sham states=           22
     kinetic-energy cutoff     =      50.0000  Ry
     charge density cutoff     =     200.0000  Ry
     convergence threshold     =      1.0E-06
     mixing beta               =       0.7000
     number of iterations used =            8  plain     mixing
     Exchange-correlation      = SLA PW PBX PBC ( 1  4  3  4 0 0)
     nstep                     =          150


     celldm(1)=   7.049812  celldm(2)=   0.000000  celldm(3)=   0.000000
     celldm(4)=   0.000000  celldm(5)=   0.000000  celldm(6)=   0.000000

     crystal axes: (cart. coord. in units of alat)
               a(1) = (   1.000000   0.000000   0.000000 )  
               a(2) = (  -0.500000   0.866027   0.000000 )  
               a(3) = (   0.000000   0.000000   1.596606 )  

     reciprocal axes: (cart. coord. in units 2 pi/alat)
               b(1) = (  1.000000  0.577349  0.000000 )  
               b(2) = (  0.000000  1.154699  0.000000 )  
               b(3) = (  0.000000  0.000000  0.626328 )  


     PseudoPot. # 1 for Gd read from file:
     /home/shaharpit/AcHProject/meam_fit/dft/qe_potentials/Gd.GGA-PBE-paw-v1.0.UPF
     MD5 check sum: 3e8e0d208da550914ae52eaf991d13de
     Pseudo is Projector augmented-wave + core cor, Zval = 18.0
     Generated using ATOMPAW code
     Shape of augmentation charge: BESSEL
     Using radial grid of 1110 points,  8 beta functions with: 
                l(1) =   0
                l(2) =   0
                l(3) =   1
                l(4) =   1
                l(5) =   2
                l(6) =   2
                l(7) =   3
                l(8) =   3
     Q(r) pseudized with 0 coefficients 


     atomic species   valence    mass     pseudopotential
        Gd            18.00   157.25000     Gd( 1.00)

      4 Sym. Ops., with inversion, found ( 2 have fractional translation)



   Cartesian axes

     site n.     atom                  positions (alat units)
         1           Gd  tau(   1) = (   0.5000500   0.2886468   1.1974548  )
         2           Gd  tau(   2) = (  -0.0000500   0.5773801   0.3991516  )

     number of k points=    30  gaussian smearing, width (Ry)=  0.0100
                       cart. coord. in units 2pi/alat
        k(    1) = (   0.0000000   0.0000000   0.0000000), wk =   0.0312500
        k(    2) = (   0.0000000   0.0000000   0.1565821), wk =   0.0625000
        k(    3) = (   0.0000000   0.0000000  -0.3131642), wk =   0.0312500
        k(    4) = (   0.0000000   0.2886746   0.0000000), wk =   0.0625000
        k(    5) = (   0.0000000   0.2886746   0.1565821), wk =   0.1250000
        k(    6) = (   0.0000000   0.2886746  -0.3131642), wk =   0.0625000
        k(    7) = (   0.0000000  -0.5773493   0.0000000), wk =   0.0312500
        k(    8) = (   0.0000000  -0.5773493   0.1565821), wk =   0.0625000
        k(    9) = (   0.0000000  -0.5773493  -0.3131642), wk =   0.0312500
        k(   10) = (   0.2500000   0.1443373   0.0000000), wk =   0.0625000
        k(   11) = (   0.2500000   0.1443373   0.1565821), wk =   0.1250000
        k(   12) = (   0.2500000   0.1443373  -0.3131642), wk =   0.0625000
        k(   13) = (   0.2500000   0.4330119   0.0000000), wk =   0.0625000
        k(   14) = (   0.2500000   0.4330119   0.1565821), wk =   0.1250000
        k(   15) = (   0.2500000   0.4330119  -0.3131642), wk =   0.0625000
        k(   16) = (  -0.5000000  -0.2886746   0.0000000), wk =   0.0312500
        k(   17) = (  -0.5000000  -0.2886746   0.1565821), wk =   0.0625000
        k(   18) = (  -0.5000000  -0.2886746  -0.3131642), wk =   0.0312500
        k(   19) = (  -0.5000000   0.0000000   0.0000000), wk =   0.0625000
        k(   20) = (  -0.5000000   0.0000000   0.1565821), wk =   0.1250000
        k(   21) = (  -0.5000000   0.0000000  -0.3131642), wk =   0.0625000
        k(   22) = (  -0.2500000   0.1443373   0.0000000), wk =   0.0625000
        k(   23) = (  -0.2500000   0.1443373  -0.1565821), wk =   0.1250000
        k(   24) = (  -0.2500000   0.1443373   0.3131642), wk =   0.0625000
        k(   25) = (  -0.2500000   0.4330119   0.0000000), wk =   0.0625000
        k(   26) = (  -0.2500000   0.4330119  -0.1565821), wk =   0.1250000
        k(   27) = (  -0.2500000   0.4330119   0.3131642), wk =   0.0625000
        k(   28) = (   0.5000000  -0.2886746   0.0000000), wk =   0.0312500
        k(   29) = (   0.5000000  -0.2886746  -0.1565821), wk =   0.0625000
        k(   30) = (   0.5000000  -0.2886746   0.3131642), wk =   0.0312500

     Dense  grid:    23115 G-vectors     FFT dimensions: (  32,  32,  54)

     Estimated max dynamical RAM per process >      54.00MB
               file Gd.GGA-PBE-paw-v1.0.UPF: wavefunction(s)  Xn Xn Xn Xn Xn Xn renormalized

     Subspace diagonalization in iterative solution of the eigenvalue problem:
     a serial algorithm will be used

 
     G-vector sticks info
     --------------------
     sticks:   dense  smooth     PW     G-vecs:    dense   smooth      PW
     Sum         673     673    199                23115    23115    3669
 


     bravais-lattice index     =            0
     lattice parameter (alat)  =       7.0498  a.u.
     unit-cell volume          =     484.4645 (a.u.)^3
     number of atoms/cell      =            2
     number of atomic types    =            1
     number of electrons       =        36.00
     number of Kohn-Sham states=           22
     kinetic-energy cutoff     =      50.0000  Ry
     charge density cutoff     =     200.0000  Ry
     convergence threshold     =      1.0E-06
     mixing beta               =       0.7000
     number of iterations used =            8  plain     mixing
     Exchange-correlation      = SLA PW PBX PBC ( 1  4  3  4 0 0)
     nstep                     =          150


     celldm(1)=   7.049812  celldm(2)=   0.000000  celldm(3)=   0.000000
     celldm(4)=   0.000000  celldm(5)=   0.000000  celldm(6)=   0.000000

     crystal axes: (cart. coord. in units of alat)
               a(1) = (   1.000000   0.000000   0.000000 )  
               a(2) = (  -0.500000   0.866027   0.000000 )  
               a(3) = (   0.000000   0.000000   1.596606 )  

     reciprocal axes: (cart. coord. in units 2 pi/alat)
               b(1) = (  1.000000  0.577349  0.000000 )  
               b(2) = (  0.000000  1.154699  0.000000 )  
               b(3) = (  0.000000  0.000000  0.626328 )  


     PseudoPot. # 1 for Gd read from file:
     /home/shaharpit/AcHProject/meam_fit/dft/qe_potentials/Gd.GGA-PBE-paw-v1.0.UPF
     MD5 check sum: 3e8e0d208da550914ae52eaf991d13de
     Pseudo is Projector augmented-wave + core cor, Zval = 18.0
     Generated using ATOMPAW code
     Shape of augmentation charge: BESSEL
     Using radial grid of 1110 points,  8 beta functions with: 
                l(1) =   0
                l(2) =   0
                l(3) =   1
                l(4) =   1
                l(5) =   2
                l(6) =   2
                l(7) =   3
                l(8) =   3
     Q(r) pseudized with 0 coefficients 


     atomic species   valence    mass     pseudopotential
        Gd            18.00   157.25000     Gd( 1.00)

      4 Sym. Ops., with inversion, found ( 2 have fractional translation)



   Cartesian axes

     site n.     atom                  positions (alat units)
         1           Gd  tau(   1) = (   0.5000500   0.2886468   1.1974548  )
         2           Gd  tau(   2) = (  -0.0000500   0.5773801   0.3991516  )

     number of k points=    30  gaussian smearing, width (Ry)=  0.0100
                       cart. coord. in units 2pi/alat
        k(    1) = (   0.0000000   0.0000000   0.0000000), wk =   0.0312500
        k(    2) = (   0.0000000   0.0000000   0.1565821), wk =   0.0625000
        k(    3) = (   0.0000000   0.0000000  -0.3131642), wk =   0.0312500
        k(    4) = (   0.0000000   0.2886746   0.0000000), wk =   0.0625000
        k(    5) = (   0.0000000   0.2886746   0.1565821), wk =   0.1250000
        k(    6) = (   0.0000000   0.2886746  -0.3131642), wk =   0.0625000
        k(    7) = (   0.0000000  -0.5773493   0.0000000), wk =   0.0312500
        k(    8) = (   0.0000000  -0.5773493   0.1565821), wk =   0.0625000
        k(    9) = (   0.0000000  -0.5773493  -0.3131642), wk =   0.0312500
        k(   10) = (   0.2500000   0.1443373   0.0000000), wk =   0.0625000
        k(   11) = (   0.2500000   0.1443373   0.1565821), wk =   0.1250000
        k(   12) = (   0.2500000   0.1443373  -0.3131642), wk =   0.0625000
        k(   13) = (   0.2500000   0.4330119   0.0000000), wk =   0.0625000
        k(   14) = (   0.2500000   0.4330119   0.1565821), wk =   0.1250000
        k(   15) = (   0.2500000   0.4330119  -0.3131642), wk =   0.0625000
        k(   16) = (  -0.5000000  -0.2886746   0.0000000), wk =   0.0312500
        k(   17) = (  -0.5000000  -0.2886746   0.1565821), wk =   0.0625000
        k(   18) = (  -0.5000000  -0.2886746  -0.3131642), wk =   0.0312500
        k(   19) = (  -0.5000000   0.0000000   0.0000000), wk =   0.0625000
        k(   20) = (  -0.5000000   0.0000000   0.1565821), wk =   0.1250000
        k(   21) = (  -0.5000000   0.0000000  -0.3131642), wk =   0.0625000
        k(   22) = (  -0.2500000   0.1443373   0.0000000), wk =   0.0625000
        k(   23) = (  -0.2500000   0.1443373  -0.1565821), wk =   0.1250000
        k(   24) = (  -0.2500000   0.1443373   0.3131642), wk =   0.0625000
        k(   25) = (  -0.2500000   0.4330119   0.0000000), wk =   0.0625000
        k(   26) = (  -0.2500000   0.4330119  -0.1565821), wk =   0.1250000
        k(   27) = (  -0.2500000   0.4330119   0.3131642), wk =   0.0625000
        k(   28) = (   0.5000000  -0.2886746   0.0000000), wk =   0.0312500
        k(   29) = (   0.5000000  -0.2886746  -0.1565821), wk =   0.0625000
        k(   30) = (   0.5000000  -0.2886746   0.3131642), wk =   0.0312500

     Dense  grid:    23115 G-vectors     FFT dimensions: (  32,  32,  54)

     Estimated max dynamical RAM per process >      54.00MB
               file Gd.GGA-PBE-paw-v1.0.UPF: wavefunction(s)  Xn Xn Xn Xn Xn Xn renormalized

     Subspace diagonalization in iterative solution of the eigenvalue problem:
     a serial algorithm will be used

               file Gd.GGA-PBE-paw-v1.0.UPF: wavefunction(s)  Xn Xn Xn Xn Xn Xn renormalized

     Subspace diagonalization in iterative solution of the eigenvalue problem:
     a serial algorithm will be used

 
 
     G-vector sticks info
     --------------------
     sticks:   dense  smooth     PW     G-vecs:    dense   smooth      PW
     Sum         673     673    199                23115    23115    3669
 


     bravais-lattice index     =            0
     lattice parameter (alat)  =       7.0498  a.u.
     unit-cell volume          =     484.4645 (a.u.)^3
     number of atoms/cell      =            2
     number of atomic types    =            1
     number of electrons       =        36.00
     number of Kohn-Sham states=           22
     kinetic-energy cutoff     =      50.0000  Ry
     charge density cutoff     =     200.0000  Ry
     convergence threshold     =      1.0E-06
     mixing beta               =       0.7000
     number of iterations used =            8  plain     mixing
     Exchange-correlation      = SLA PW PBX PBC ( 1  4  3  4 0 0)
     nstep                     =          150


     celldm(1)=   7.049812  celldm(2)=   0.000000  celldm(3)=   0.000000
     celldm(4)=   0.000000  celldm(5)=   0.000000  celldm(6)=   0.000000

     crystal axes: (cart. coord. in units of alat)
               a(1) = (   1.000000   0.000000   0.000000 )  
               a(2) = (  -0.500000   0.866027   0.000000 )  
               a(3) = (   0.000000   0.000000   1.596606 )  

     reciprocal axes: (cart. coord. in units 2 pi/alat)
               b(1) = (  1.000000  0.577349  0.000000 )  
               b(2) = (  0.000000  1.154699  0.000000 )  
               b(3) = (  0.000000  0.000000  0.626328 )  


     PseudoPot. # 1 for Gd read from file:
     /home/shaharpit/AcHProject/meam_fit/dft/qe_potentials/Gd.GGA-PBE-paw-v1.0.UPF
     MD5 check sum: 3e8e0d208da550914ae52eaf991d13de
     Pseudo is Projector augmented-wave + core cor, Zval = 18.0
     Generated using ATOMPAW code
     Shape of augmentation charge: BESSEL
     Using radial grid of 1110 points,  8 beta functions with: 
                l(1) =   0
                l(2) =   0
                l(3) =   1
                l(4) =   1
                l(5) =   2
                l(6) =   2
                l(7) =   3
                l(8) =   3
     Q(r) pseudized with 0 coefficients 


     atomic species   valence    mass     pseudopotential
        Gd            18.00   157.25000     Gd( 1.00)

      4 Sym. Ops., with inversion, found ( 2 have fractional translation)



   Cartesian axes

     site n.     atom                  positions (alat units)
         1           Gd  tau(   1) = (   0.5000500   0.2886468   1.1974548  )
         2           Gd  tau(   2) = (  -0.0000500   0.5773801   0.3991516  )

     number of k points=    30  gaussian smearing, width (Ry)=  0.0100
                       cart. coord. in units 2pi/alat
        k(    1) = (   0.0000000   0.0000000   0.0000000), wk =   0.0312500
        k(    2) = (   0.0000000   0.0000000   0.1565821), wk =   0.0625000
        k(    3) = (   0.0000000   0.0000000  -0.3131642), wk =   0.0312500
        k(    4) = (   0.0000000   0.2886746   0.0000000), wk =   0.0625000
        k(    5) = (   0.0000000   0.2886746   0.1565821), wk =   0.1250000
        k(    6) = (   0.0000000   0.2886746  -0.3131642), wk =   0.0625000
        k(    7) = (   0.0000000  -0.5773493   0.0000000), wk =   0.0312500
        k(    8) = (   0.0000000  -0.5773493   0.1565821), wk =   0.0625000
        k(    9) = (   0.0000000  -0.5773493  -0.3131642), wk =   0.0312500
        k(   10) = (   0.2500000   0.1443373   0.0000000), wk =   0.0625000
        k(   11) = (   0.2500000   0.1443373   0.1565821), wk =   0.1250000
        k(   12) = (   0.2500000   0.1443373  -0.3131642), wk =   0.0625000
        k(   13) = (   0.2500000   0.4330119   0.0000000), wk =   0.0625000
        k(   14) = (   0.2500000   0.4330119   0.1565821), wk =   0.1250000
        k(   15) = (   0.2500000   0.4330119  -0.3131642), wk =   0.0625000
        k(   16) = (  -0.5000000  -0.2886746   0.0000000), wk =   0.0312500
        k(   17) = (  -0.5000000  -0.2886746   0.1565821), wk =   0.0625000
        k(   18) = (  -0.5000000  -0.2886746  -0.3131642), wk =   0.0312500
        k(   19) = (  -0.5000000   0.0000000   0.0000000), wk =   0.0625000
        k(   20) = (  -0.5000000   0.0000000   0.1565821), wk =   0.1250000
        k(   21) = (  -0.5000000   0.0000000  -0.3131642), wk =   0.0625000
        k(   22) = (  -0.2500000   0.1443373   0.0000000), wk =   0.0625000
        k(   23) = (  -0.2500000   0.1443373  -0.1565821), wk =   0.1250000
        k(   24) = (  -0.2500000   0.1443373   0.3131642), wk =   0.0625000
        k(   25) = (  -0.2500000   0.4330119   0.0000000), wk =   0.0625000
        k(   26) = (  -0.2500000   0.4330119  -0.1565821), wk =   0.1250000
        k(   27) = (  -0.2500000   0.4330119   0.3131642), wk =   0.0625000
        k(   28) = (   0.5000000  -0.2886746   0.0000000), wk =   0.0312500
        k(   29) = (   0.5000000  -0.2886746  -0.1565821), wk =   0.0625000
        k(   30) = (   0.5000000  -0.2886746   0.3131642), wk =   0.0312500

     Dense  grid:    23115 G-vectors     FFT dimensions: (  32,  32,  54)

     Estimated max dynamical RAM per process >      54.00MB
     G-vector sticks info
     --------------------
     sticks:   dense  smooth     PW     G-vecs:    dense   smooth      PW
     Sum         673     673    199                23115    23115    3669
 


     bravais-lattice index     =            0
     lattice parameter (alat)  =       7.0498  a.u.
     unit-cell volume          =     484.4645 (a.u.)^3
     number of atoms/cell      =            2
     number of atomic types    =            1
     number of electrons       =        36.00
     number of Kohn-Sham states=           22
     kinetic-energy cutoff     =      50.0000  Ry
     charge density cutoff     =     200.0000  Ry
     convergence threshold     =      1.0E-06
     mixing beta               =       0.7000
     number of iterations used =            8  plain     mixing
     Exchange-correlation      = SLA PW PBX PBC ( 1  4  3  4 0 0)
     nstep                     =          150


     celldm(1)=   7.049812  celldm(2)=   0.000000  celldm(3)=   0.000000
     celldm(4)=   0.000000  celldm(5)=   0.000000  celldm(6)=   0.000000

     crystal axes: (cart. coord. in units of alat)
               a(1) = (   1.000000   0.000000   0.000000 )  
               a(2) = (  -0.500000   0.866027   0.000000 )  
               a(3) = (   0.000000   0.000000   1.596606 )  

     reciprocal axes: (cart. coord. in units 2 pi/alat)
               b(1) = (  1.000000  0.577349  0.000000 )  
               b(2) = (  0.000000  1.154699  0.000000 )  
               b(3) = (  0.000000  0.000000  0.626328 )  


     PseudoPot. # 1 for Gd read from file:
     /home/shaharpit/AcHProject/meam_fit/dft/qe_potentials/Gd.GGA-PBE-paw-v1.0.UPF
     MD5 check sum: 3e8e0d208da550914ae52eaf991d13de
     Pseudo is Projector augmented-wave + core cor, Zval = 18.0
     Generated using ATOMPAW code
     Shape of augmentation charge: BESSEL
     Using radial grid of 1110 points,  8 beta functions with: 
                l(1) =   0
                l(2) =   0
                l(3) =   1
                l(4) =   1
                l(5) =   2
                l(6) =   2
                l(7) =   3
                l(8) =   3
     Q(r) pseudized with 0 coefficients 


     atomic species   valence    mass     pseudopotential
        Gd            18.00   157.25000     Gd( 1.00)

      4 Sym. Ops., with inversion, found ( 2 have fractional translation)



   Cartesian axes

     site n.     atom                  positions (alat units)
         1           Gd  tau(   1) = (   0.5000500   0.2886468   1.1974548  )
         2           Gd  tau(   2) = (  -0.0000500   0.5773801   0.3991516  )

     number of k points=    30  gaussian smearing, width (Ry)=  0.0100
                       cart. coord. in units 2pi/alat
        k(    1) = (   0.0000000   0.0000000   0.0000000), wk =   0.0312500
        k(    2) = (   0.0000000   0.0000000   0.1565821), wk =   0.0625000
        k(    3) = (   0.0000000   0.0000000  -0.3131642), wk =   0.0312500
        k(    4) = (   0.0000000   0.2886746   0.0000000), wk =   0.0625000
        k(    5) = (   0.0000000   0.2886746   0.1565821), wk =   0.1250000
        k(    6) = (   0.0000000   0.2886746  -0.3131642), wk =   0.0625000
        k(    7) = (   0.0000000  -0.5773493   0.0000000), wk =   0.0312500
        k(    8) = (   0.0000000  -0.5773493   0.1565821), wk =   0.0625000
        k(    9) = (   0.0000000  -0.5773493  -0.3131642), wk =   0.0312500
        k(   10) = (   0.2500000   0.1443373   0.0000000), wk =   0.0625000
        k(   11) = (   0.2500000   0.1443373   0.1565821), wk =   0.1250000
        k(   12) = (   0.2500000   0.1443373  -0.3131642), wk =   0.0625000
        k(   13) = (   0.2500000   0.4330119   0.0000000), wk =   0.0625000
        k(   14) = (   0.2500000   0.4330119   0.1565821), wk =   0.1250000
        k(   15) = (   0.2500000   0.4330119  -0.3131642), wk =   0.0625000
        k(   16) = (  -0.5000000  -0.2886746   0.0000000), wk =   0.0312500
        k(   17) = (  -0.5000000  -0.2886746   0.1565821), wk =   0.0625000
        k(   18) = (  -0.5000000  -0.2886746  -0.3131642), wk =   0.0312500
        k(   19) = (  -0.5000000   0.0000000   0.0000000), wk =   0.0625000
        k(   20) = (  -0.5000000   0.0000000   0.1565821), wk =   0.1250000
        k(   21) = (  -0.5000000   0.0000000  -0.3131642), wk =   0.0625000
        k(   22) = (  -0.2500000   0.1443373   0.0000000), wk =   0.0625000
        k(   23) = (  -0.2500000   0.1443373  -0.1565821), wk =   0.1250000
        k(   24) = (  -0.2500000   0.1443373   0.3131642), wk =   0.0625000
        k(   25) = (  -0.2500000   0.4330119   0.0000000), wk =   0.0625000
        k(   26) = (  -0.2500000   0.4330119  -0.1565821), wk =   0.1250000
        k(   27) = (  -0.2500000   0.4330119   0.3131642), wk =   0.0625000
        k(   28) = (   0.5000000  -0.2886746   0.0000000), wk =   0.0312500
        k(   29) = (   0.5000000  -0.2886746  -0.1565821), wk =   0.0625000
        k(   30) = (   0.5000000  -0.2886746   0.3131642), wk =   0.0312500

     Dense  grid:    23115 G-vectors     FFT dimensions: (  32,  32,  54)

     Estimated max dynamical RAM per process >      54.00MB
               file Gd.GGA-PBE-paw-v1.0.UPF: wavefunction(s)  Xn Xn Xn Xn Xn Xn renormalized

     Subspace diagonalization in iterative solution of the eigenvalue problem:
     a serial algorithm will be used

               file Gd.GGA-PBE-paw-v1.0.UPF: wavefunction(s)  Xn Xn Xn Xn Xn Xn renormalized

     Subspace diagonalization in iterative solution of the eigenvalue problem:
     a serial algorithm will be used

               file Gd.GGA-PBE-paw-v1.0.UPF: wavefunction(s)  Xn Xn Xn Xn Xn Xn renormalized

     Subspace diagonalization in iterative solution of the eigenvalue problem:
     a serial algorithm will be used

               file Gd.GGA-PBE-paw-v1.0.UPF: wavefunction(s)  Xn Xn Xn Xn Xn Xn renormalized

     Subspace diagonalization in iterative solution of the eigenvalue problem:
     a serial algorithm will be used

 
     G-vector sticks info
     --------------------
     sticks:   dense  smooth     PW     G-vecs:    dense   smooth      PW
     Sum         673     673    199                23115    23115    3669
 


     bravais-lattice index     =            0
     lattice parameter (alat)  =       7.0498  a.u.
     unit-cell volume          =     484.4645 (a.u.)^3
     number of atoms/cell      =            2
     number of atomic types    =            1
     number of electrons       =        36.00
     number of Kohn-Sham states=           22
     kinetic-energy cutoff     =      50.0000  Ry
     charge density cutoff     =     200.0000  Ry
     convergence threshold     =      1.0E-06
     mixing beta               =       0.7000
     number of iterations used =            8  plain     mixing
     Exchange-correlation      = SLA PW PBX PBC ( 1  4  3  4 0 0)
     nstep                     =          150


     celldm(1)=   7.049812  celldm(2)=   0.000000  celldm(3)=   0.000000
     celldm(4)=   0.000000  celldm(5)=   0.000000  celldm(6)=   0.000000

     crystal axes: (cart. coord. in units of alat)
               a(1) = (   1.000000   0.000000   0.000000 )  
               a(2) = (  -0.500000   0.866027   0.000000 )  
               a(3) = (   0.000000   0.000000   1.596606 )  

     reciprocal axes: (cart. coord. in units 2 pi/alat)
               b(1) = (  1.000000  0.577349  0.000000 )  
               b(2) = (  0.000000  1.154699  0.000000 )  
               b(3) = (  0.000000  0.000000  0.626328 )  


     PseudoPot. # 1 for Gd read from file:
     /home/shaharpit/AcHProject/meam_fit/dft/qe_potentials/Gd.GGA-PBE-paw-v1.0.UPF
     MD5 check sum: 3e8e0d208da550914ae52eaf991d13de
     Pseudo is Projector augmented-wave + core cor, Zval = 18.0
     Generated using ATOMPAW code
     Shape of augmentation charge: BESSEL
     Using radial grid of 1110 points,  8 beta functions with: 
                l(1) =   0
                l(2) =   0
                l(3) =   1
                l(4) =   1
                l(5) =   2
                l(6) =   2
                l(7) =   3
                l(8) =   3
     Q(r) pseudized with 0 coefficients 


     atomic species   valence    mass     pseudopotential
        Gd            18.00   157.25000     Gd( 1.00)

      4 Sym. Ops., with inversion, found ( 2 have fractional translation)



   Cartesian axes

     site n.     atom                  positions (alat units)
         1           Gd  tau(   1) = (   0.5000500   0.2886468   1.1974548  )
         2           Gd  tau(   2) = (  -0.0000500   0.5773801   0.3991516  )

     number of k points=    30  gaussian smearing, width (Ry)=  0.0100
                       cart. coord. in units 2pi/alat
        k(    1) = (   0.0000000   0.0000000   0.0000000), wk =   0.0312500
        k(    2) = (   0.0000000   0.0000000   0.1565821), wk =   0.0625000
        k(    3) = (   0.0000000   0.0000000  -0.3131642), wk =   0.0312500
        k(    4) = (   0.0000000   0.2886746   0.0000000), wk =   0.0625000
        k(    5) = (   0.0000000   0.2886746   0.1565821), wk =   0.1250000
        k(    6) = (   0.0000000   0.2886746  -0.3131642), wk =   0.0625000
        k(    7) = (   0.0000000  -0.5773493   0.0000000), wk =   0.0312500
        k(    8) = (   0.0000000  -0.5773493   0.1565821), wk =   0.0625000
        k(    9) = (   0.0000000  -0.5773493  -0.3131642), wk =   0.0312500
        k(   10) = (   0.2500000   0.1443373   0.0000000), wk =   0.0625000
        k(   11) = (   0.2500000   0.1443373   0.1565821), wk =   0.1250000
        k(   12) = (   0.2500000   0.1443373  -0.3131642), wk =   0.0625000
        k(   13) = (   0.2500000   0.4330119   0.0000000), wk =   0.0625000
        k(   14) = (   0.2500000   0.4330119   0.1565821), wk =   0.1250000
        k(   15) = (   0.2500000   0.4330119  -0.3131642), wk =   0.0625000
        k(   16) = (  -0.5000000  -0.2886746   0.0000000), wk =   0.0312500
        k(   17) = (  -0.5000000  -0.2886746   0.1565821), wk =   0.0625000
        k(   18) = (  -0.5000000  -0.2886746  -0.3131642), wk =   0.0312500
        k(   19) = (  -0.5000000   0.0000000   0.0000000), wk =   0.0625000
        k(   20) = (  -0.5000000   0.0000000   0.1565821), wk =   0.1250000
        k(   21) = (  -0.5000000   0.0000000  -0.3131642), wk =   0.0625000
        k(   22) = (  -0.2500000   0.1443373   0.0000000), wk =   0.0625000
        k(   23) = (  -0.2500000   0.1443373  -0.1565821), wk =   0.1250000
        k(   24) = (  -0.2500000   0.1443373   0.3131642), wk =   0.0625000
        k(   25) = (  -0.2500000   0.4330119   0.0000000), wk =   0.0625000
        k(   26) = (  -0.2500000   0.4330119  -0.1565821), wk =   0.1250000
        k(   27) = (  -0.2500000   0.4330119   0.3131642), wk =   0.0625000
        k(   28) = (   0.5000000  -0.2886746   0.0000000), wk =   0.0312500
        k(   29) = (   0.5000000  -0.2886746  -0.1565821), wk =   0.0625000
        k(   30) = (   0.5000000  -0.2886746   0.3131642), wk =   0.0312500

     Dense  grid:    23115 G-vectors     FFT dimensions: (  32,  32,  54)

     Estimated max dynamical RAM per process >      54.00MB
 
     G-vector sticks info
     --------------------
     sticks:   dense  smooth     PW     G-vecs:    dense   smooth      PW
 
     G-vector sticks info
     Sum         673     673    199                23115    23115    3669
 
     --------------------
     sticks:   dense  smooth     PW     G-vecs:    dense   smooth      PW
     Sum         673     673    199                23115    23115    3669
 


     bravais-lattice index     =            0
 
     G-vector sticks info
     --------------------
     sticks:   dense  smooth     PW     G-vecs:    dense   smooth      PW
     lattice parameter (alat)  =       7.0498  a.u.
     unit-cell volume          =     484.4645 (a.u.)^3
     number of atoms/cell      =            2
     number of atomic types    =            1
     number of electrons       =        36.00
     number of Kohn-Sham states=           22
     Sum         673     673    199                23115    23115    3669
 


     bravais-lattice index     =            0
     lattice parameter (alat)  =       7.0498  a.u.
     unit-cell volume          =     484.4645 (a.u.)^3
     number of atoms/cell      =            2
     number of atomic types    =            1
     kinetic-energy cutoff     =      50.0000  Ry
     charge density cutoff     =     200.0000  Ry
     convergence threshold     =      1.0E-06
     mixing beta               =       0.7000
     number of iterations used =            8  plain     mixing
     Exchange-correlation      = SLA PW PBX PBC ( 1  4  3  4 0 0)
     nstep                     =          150


     bravais-lattice index     =            0
     lattice parameter (alat)  =       7.0498  a.u.
     unit-cell volume          =     484.4645 (a.u.)^3
     number of atoms/cell      =            2
     number of atomic types    =            1
     number of electrons       =        36.00
     number of Kohn-Sham states=           22
     kinetic-energy cutoff     =      50.0000  Ry
     charge density cutoff     =     200.0000  Ry
     number of electrons       =        36.00
     number of Kohn-Sham states=           22
     kinetic-energy cutoff     =      50.0000  Ry
     charge density cutoff     =     200.0000  Ry
     convergence threshold     =      1.0E-06
     mixing beta               =       0.7000
     number of iterations used =            8  plain     mixing
     Exchange-correlation      = SLA PW PBX PBC ( 1  4  3  4 0 0)
     nstep                     =          150



     celldm(1)=   7.049812  celldm(2)=   0.000000  celldm(3)=   0.000000
     celldm(4)=   0.000000  celldm(5)=   0.000000  celldm(6)=   0.000000

     crystal axes: (cart. coord. in units of alat)
               a(1) = (   1.000000   0.000000   0.000000 )  
               a(2) = (  -0.500000   0.866027   0.000000 )  

     celldm(1)=   7.049812  celldm(2)=   0.000000  celldm(3)=   0.000000
     celldm(4)=   0.000000  celldm(5)=   0.000000  celldm(6)=   0.000000

     crystal axes: (cart. coord. in units of alat)
     convergence threshold     =      1.0E-06
     mixing beta               =       0.7000
     number of iterations used =            8  plain     mixing
     Exchange-correlation      = SLA PW PBX PBC ( 1  4  3  4 0 0)
     nstep                     =          150


     celldm(1)=   7.049812  celldm(2)=   0.000000  celldm(3)=   0.000000
     celldm(4)=   0.000000  celldm(5)=   0.000000  celldm(6)=   0.000000
               a(3) = (   0.000000   0.000000   1.596606 )  

     reciprocal axes: (cart. coord. in units 2 pi/alat)
               b(1) = (  1.000000  0.577349  0.000000 )  
               b(2) = (  0.000000  1.154699  0.000000 )  
               b(3) = (  0.000000  0.000000  0.626328 )  


     PseudoPot. # 1 for Gd read from file:

     crystal axes: (cart. coord. in units of alat)
               a(1) = (   1.000000   0.000000   0.000000 )  
               a(2) = (  -0.500000   0.866027   0.000000 )  
               a(3) = (   0.000000   0.000000   1.596606 )  

     reciprocal axes: (cart. coord. in units 2 pi/alat)
               b(1) = (  1.000000  0.577349  0.000000 )  
               b(2) = (  0.000000  1.154699  0.000000 )  
               b(3) = (  0.000000  0.000000  0.626328 )  
               a(1) = (   1.000000   0.000000   0.000000 )  
               a(2) = (  -0.500000   0.866027   0.000000 )  
               a(3) = (   0.000000   0.000000   1.596606 )  

     reciprocal axes: (cart. coord. in units 2 pi/alat)
               b(1) = (  1.000000  0.577349  0.000000 )  
               b(2) = (  0.000000  1.154699  0.000000 )  
               b(3) = (  0.000000  0.000000  0.626328 )  


     PseudoPot. # 1 for Gd read from file:
     /home/shaharpit/AcHProject/meam_fit/dft/qe_potentials/Gd.GGA-PBE-paw-v1.0.UPF
     MD5 check sum: 3e8e0d208da550914ae52eaf991d13de
     Pseudo is Projector augmented-wave + core cor, Zval = 18.0
     Generated using ATOMPAW code
     Shape of augmentation charge: BESSEL
     Using radial grid of 1110 points,  8 beta functions with: 
     /home/shaharpit/AcHProject/meam_fit/dft/qe_potentials/Gd.GGA-PBE-paw-v1.0.UPF
     MD5 check sum: 3e8e0d208da550914ae52eaf991d13de
     Pseudo is Projector augmented-wave + core cor, Zval = 18.0
     Generated using ATOMPAW code
     Shape of augmentation charge: BESSEL
     Using radial grid of 1110 points,  8 beta functions with: 
                l(1) =   0
                l(2) =   0
                l(3) =   1
                l(4) =   1
                l(5) =   2
                l(6) =   2
                l(7) =   3
                l(8) =   3
     Q(r) pseudized with 0 coefficients 

                l(1) =   0
                l(2) =   0
                l(3) =   1
                l(4) =   1
                l(5) =   2
                l(6) =   2
                l(7) =   3
                l(8) =   3
     Q(r) pseudized with 0 coefficients 



     PseudoPot. # 1 for Gd read from file:
     /home/shaharpit/AcHProject/meam_fit/dft/qe_potentials/Gd.GGA-PBE-paw-v1.0.UPF
     MD5 check sum: 3e8e0d208da550914ae52eaf991d13de
     Pseudo is Projector augmented-wave + core cor, Zval = 18.0
     Generated using ATOMPAW code
     Shape of augmentation charge: BESSEL
     Using radial grid of 1110 points,  8 beta functions with: 
                l(1) =   0
                l(2) =   0
                l(3) =   1
                l(4) =   1
                l(5) =   2

     atomic species   valence    mass     pseudopotential
        Gd            18.00   157.25000     Gd( 1.00)

      4 Sym. Ops., with inversion, found ( 2 have fractional translation)



   Cartesian axes

                l(6) =   2
                l(7) =   3
                l(8) =   3
     Q(r) pseudized with 0 coefficients 


     atomic species   valence    mass     pseudopotential
        Gd            18.00   157.25000     Gd( 1.00)

     atomic species   valence    mass     pseudopotential
        Gd            18.00   157.25000     Gd( 1.00)

      4 Sym. Ops., with inversion, found ( 2 have fractional translation)



   Cartesian axes

     site n.     atom                  positions (alat units)
     site n.     atom                  positions (alat units)
         1           Gd  tau(   1) = (   0.5000500   0.2886468   1.1974548  )
         2           Gd  tau(   2) = (  -0.0000500   0.5773801   0.3991516  )

     number of k points=    30  gaussian smearing, width (Ry)=  0.0100
                       cart. coord. in units 2pi/alat
        k(    1) = (   0.0000000   0.0000000   0.0000000), wk =   0.0312500
        k(    2) = (   0.0000000   0.0000000   0.1565821), wk =   0.0625000
        k(    3) = (   0.0000000   0.0000000  -0.3131642), wk =   0.0312500
         1           Gd  tau(   1) = (   0.5000500   0.2886468   1.1974548  )
         2           Gd  tau(   2) = (  -0.0000500   0.5773801   0.3991516  )


      4 Sym. Ops., with inversion, found ( 2 have fractional translation)



   Cartesian axes

     site n.     atom                  positions (alat units)
         1           Gd  tau(   1) = (   0.5000500   0.2886468   1.1974548  )
        k(    4) = (   0.0000000   0.2886746   0.0000000), wk =   0.0625000
        k(    5) = (   0.0000000   0.2886746   0.1565821), wk =   0.1250000
        k(    6) = (   0.0000000   0.2886746  -0.3131642), wk =   0.0625000
        k(    7) = (   0.0000000  -0.5773493   0.0000000), wk =   0.0312500
        k(    8) = (   0.0000000  -0.5773493   0.1565821), wk =   0.0625000
        k(    9) = (   0.0000000  -0.5773493  -0.3131642), wk =   0.0312500
         2           Gd  tau(   2) = (  -0.0000500   0.5773801   0.3991516  )

     number of k points=    30  gaussian smearing, width (Ry)=  0.0100
                       cart. coord. in units 2pi/alat
        k(    1) = (   0.0000000   0.0000000   0.0000000), wk =   0.0312500
        k(    2) = (   0.0000000   0.0000000   0.1565821), wk =   0.0625000
        k(    3) = (   0.0000000   0.0000000  -0.3131642), wk =   0.0312500
     number of k points=    30  gaussian smearing, width (Ry)=  0.0100
                       cart. coord. in units 2pi/alat
        k(    1) = (   0.0000000   0.0000000   0.0000000), wk =   0.0312500
        k(    2) = (   0.0000000   0.0000000   0.1565821), wk =   0.0625000
        k(    3) = (   0.0000000   0.0000000  -0.3131642), wk =   0.0312500
        k(    4) = (   0.0000000   0.2886746   0.0000000), wk =   0.0625000
        k(    5) = (   0.0000000   0.2886746   0.1565821), wk =   0.1250000
        k(    6) = (   0.0000000   0.2886746  -0.3131642), wk =   0.0625000
        k(    7) = (   0.0000000  -0.5773493   0.0000000), wk =   0.0312500
        k(   10) = (   0.2500000   0.1443373   0.0000000), wk =   0.0625000
        k(   11) = (   0.2500000   0.1443373   0.1565821), wk =   0.1250000
        k(   12) = (   0.2500000   0.1443373  -0.3131642), wk =   0.0625000
        k(   13) = (   0.2500000   0.4330119   0.0000000), wk =   0.0625000
        k(   14) = (   0.2500000   0.4330119   0.1565821), wk =   0.1250000
        k(   15) = (   0.2500000   0.4330119  -0.3131642), wk =   0.0625000
        k(   16) = (  -0.5000000  -0.2886746   0.0000000), wk =   0.0312500
        k(   17) = (  -0.5000000  -0.2886746   0.1565821), wk =   0.0625000
        k(    8) = (   0.0000000  -0.5773493   0.1565821), wk =   0.0625000
        k(    9) = (   0.0000000  -0.5773493  -0.3131642), wk =   0.0312500
        k(   10) = (   0.2500000   0.1443373   0.0000000), wk =   0.0625000
        k(   11) = (   0.2500000   0.1443373   0.1565821), wk =   0.1250000
        k(   12) = (   0.2500000   0.1443373  -0.3131642), wk =   0.0625000
        k(   13) = (   0.2500000   0.4330119   0.0000000), wk =   0.0625000
        k(    4) = (   0.0000000   0.2886746   0.0000000), wk =   0.0625000
        k(    5) = (   0.0000000   0.2886746   0.1565821), wk =   0.1250000
        k(    6) = (   0.0000000   0.2886746  -0.3131642), wk =   0.0625000
        k(    7) = (   0.0000000  -0.5773493   0.0000000), wk =   0.0312500
        k(    8) = (   0.0000000  -0.5773493   0.1565821), wk =   0.0625000
        k(    9) = (   0.0000000  -0.5773493  -0.3131642), wk =   0.0312500
        k(   10) = (   0.2500000   0.1443373   0.0000000), wk =   0.0625000
        k(   11) = (   0.2500000   0.1443373   0.1565821), wk =   0.1250000
        k(   12) = (   0.2500000   0.1443373  -0.3131642), wk =   0.0625000
        k(   13) = (   0.2500000   0.4330119   0.0000000), wk =   0.0625000
        k(   18) = (  -0.5000000  -0.2886746  -0.3131642), wk =   0.0312500
        k(   19) = (  -0.5000000   0.0000000   0.0000000), wk =   0.0625000
        k(   20) = (  -0.5000000   0.0000000   0.1565821), wk =   0.1250000
        k(   21) = (  -0.5000000   0.0000000  -0.3131642), wk =   0.0625000
        k(   22) = (  -0.2500000   0.1443373   0.0000000), wk =   0.0625000
        k(   23) = (  -0.2500000   0.1443373  -0.1565821), wk =   0.1250000
        k(   24) = (  -0.2500000   0.1443373   0.3131642), wk =   0.0625000
        k(   14) = (   0.2500000   0.4330119   0.1565821), wk =   0.1250000
        k(   15) = (   0.2500000   0.4330119  -0.3131642), wk =   0.0625000
        k(   16) = (  -0.5000000  -0.2886746   0.0000000), wk =   0.0312500
        k(   17) = (  -0.5000000  -0.2886746   0.1565821), wk =   0.0625000
        k(   14) = (   0.2500000   0.4330119   0.1565821), wk =   0.1250000
        k(   15) = (   0.2500000   0.4330119  -0.3131642), wk =   0.0625000
        k(   16) = (  -0.5000000  -0.2886746   0.0000000), wk =   0.0312500
        k(   17) = (  -0.5000000  -0.2886746   0.1565821), wk =   0.0625000
        k(   18) = (  -0.5000000  -0.2886746  -0.3131642), wk =   0.0312500
        k(   19) = (  -0.5000000   0.0000000   0.0000000), wk =   0.0625000
        k(   25) = (  -0.2500000   0.4330119   0.0000000), wk =   0.0625000
        k(   26) = (  -0.2500000   0.4330119  -0.1565821), wk =   0.1250000
        k(   27) = (  -0.2500000   0.4330119   0.3131642), wk =   0.0625000
        k(   28) = (   0.5000000  -0.2886746   0.0000000), wk =   0.0312500
        k(   29) = (   0.5000000  -0.2886746  -0.1565821), wk =   0.0625000
        k(   30) = (   0.5000000  -0.2886746   0.3131642), wk =   0.0312500

     Dense  grid:    23115 G-vectors     FFT dimensions: (  32,  32,  54)
        k(   20) = (  -0.5000000   0.0000000   0.1565821), wk =   0.1250000
        k(   21) = (  -0.5000000   0.0000000  -0.3131642), wk =   0.0625000
        k(   22) = (  -0.2500000   0.1443373   0.0000000), wk =   0.0625000
        k(   23) = (  -0.2500000   0.1443373  -0.1565821), wk =   0.1250000
        k(   24) = (  -0.2500000   0.1443373   0.3131642), wk =   0.0625000
        k(   25) = (  -0.2500000   0.4330119   0.0000000), wk =   0.0625000
        k(   26) = (  -0.2500000   0.4330119  -0.1565821), wk =   0.1250000
        k(   18) = (  -0.5000000  -0.2886746  -0.3131642), wk =   0.0312500
        k(   19) = (  -0.5000000   0.0000000   0.0000000), wk =   0.0625000
        k(   20) = (  -0.5000000   0.0000000   0.1565821), wk =   0.1250000
        k(   21) = (  -0.5000000   0.0000000  -0.3131642), wk =   0.0625000
        k(   22) = (  -0.2500000   0.1443373   0.0000000), wk =   0.0625000
        k(   23) = (  -0.2500000   0.1443373  -0.1565821), wk =   0.1250000
        k(   24) = (  -0.2500000   0.1443373   0.3131642), wk =   0.0625000
        k(   25) = (  -0.2500000   0.4330119   0.0000000), wk =   0.0625000
        k(   26) = (  -0.2500000   0.4330119  -0.1565821), wk =   0.1250000
        k(   27) = (  -0.2500000   0.4330119   0.3131642), wk =   0.0625000
        k(   28) = (   0.5000000  -0.2886746   0.0000000), wk =   0.0312500

     Estimated max dynamical RAM per process >      54.00MB
        k(   29) = (   0.5000000  -0.2886746  -0.1565821), wk =   0.0625000
        k(   30) = (   0.5000000  -0.2886746   0.3131642), wk =   0.0312500

     Dense  grid:    23115 G-vectors     FFT dimensions: (  32,  32,  54)

     Estimated max dynamical RAM per process >      54.00MB
        k(   27) = (  -0.2500000   0.4330119   0.3131642), wk =   0.0625000
        k(   28) = (   0.5000000  -0.2886746   0.0000000), wk =   0.0312500
        k(   29) = (   0.5000000  -0.2886746  -0.1565821), wk =   0.0625000
        k(   30) = (   0.5000000  -0.2886746   0.3131642), wk =   0.0312500

     Dense  grid:    23115 G-vectors     FFT dimensions: (  32,  32,  54)

     Estimated max dynamical RAM per process >      54.00MB
               file Gd.GGA-PBE-paw-v1.0.UPF: wavefunction(s)  Xn Xn Xn Xn Xn Xn renormalized

     Subspace diagonalization in iterative solution of the eigenvalue problem:
     a serial algorithm will be used

 
     G-vector sticks info
     --------------------
     sticks:   dense  smooth     PW     G-vecs:    dense   smooth      PW
     Sum         673     673    199                23115    23115    3669
 


     bravais-lattice index     =            0
     lattice parameter (alat)  =       7.0498  a.u.
     unit-cell volume          =     484.4645 (a.u.)^3
     number of atoms/cell      =            2
     number of atomic types    =            1
     number of electrons       =        36.00
     number of Kohn-Sham states=           22
     kinetic-energy cutoff     =      50.0000  Ry
     charge density cutoff     =     200.0000  Ry
     convergence threshold     =      1.0E-06
     mixing beta               =       0.7000
     number of iterations used =            8  plain     mixing
     Exchange-correlation      = SLA PW PBX PBC ( 1  4  3  4 0 0)
     nstep                     =          150


     celldm(1)=   7.049812  celldm(2)=   0.000000  celldm(3)=   0.000000
     celldm(4)=   0.000000  celldm(5)=   0.000000  celldm(6)=   0.000000

     crystal axes: (cart. coord. in units of alat)
               a(1) = (   1.000000   0.000000   0.000000 )  
               a(2) = (  -0.500000   0.866027   0.000000 )  
               a(3) = (   0.000000   0.000000   1.596606 )  

     reciprocal axes: (cart. coord. in units 2 pi/alat)
               b(1) = (  1.000000  0.577349  0.000000 )  
               b(2) = (  0.000000  1.154699  0.000000 )  
               b(3) = (  0.000000  0.000000  0.626328 )  


     PseudoPot. # 1 for Gd read from file:
     /home/shaharpit/AcHProject/meam_fit/dft/qe_potentials/Gd.GGA-PBE-paw-v1.0.UPF
     MD5 check sum: 3e8e0d208da550914ae52eaf991d13de
     Pseudo is Projector augmented-wave + core cor, Zval = 18.0
     Generated using ATOMPAW code
     Shape of augmentation charge: BESSEL
     Using radial grid of 1110 points,  8 beta functions with: 
                l(1) =   0
[...]

   -31.5143 -31.5143  -9.5736  -9.5736  -9.2914  -9.2914  -9.2888  -9.2888
     8.1050   8.1050  10.6431  10.6431  10.7868  10.7868  10.7907  10.7907
    10.8295  10.8295  10.9741  10.9741  11.0012  11.0012

          k = 0.0000 0.2887 0.0000 (  2890 PWs)   bands (ev):

   -31.5201 -31.4762  -9.7840  -9.5747  -9.4790  -9.4131  -9.2783  -9.2756
     7.9326  10.2935  10.6752  10.6990  10.7000  10.7822  10.8477  10.8708
    10.8832  10.8933  10.9031  10.9135  10.9191  10.9343

          k = 0.0000 0.2887 0.1566 (  2875 PWs)   bands (ev):

   -31.5137 -31.4826  -9.7587  -9.5566  -9.5013  -9.3937  -9.2999  -9.2983
     8.2445  10.0417  10.6084  10.6654  10.7335  10.7658  10.8333  10.8547
    10.8611  10.8716  10.9063  10.9287  10.9392  10.9519

          k = 0.0000 0.2887-0.3132 (  2894 PWs)   bands (ev):

   -31.4982 -31.4982  -9.6711  -9.6711  -9.3887  -9.3887  -9.3463  -9.3463
     9.0826   9.0826  10.6248  10.6248  10.7595  10.7595  10.8295  10.8295
    10.8544  10.8544  10.9195  10.9195  10.9433  10.9433

          k = 0.0000-0.5773 0.0000 (  2898 PWs)   bands (ev):

   -31.4916 -31.4723  -9.8099  -9.6955  -9.6087  -9.4814  -9.3884  -9.3179
     9.6575  10.1059  10.4055  10.7113  10.8122  10.8235  10.8447  10.8514
    10.8648  10.8713  10.8806  10.8981  10.9211  10.9534

          k = 0.0000-0.5773 0.1566 (  2884 PWs)   bands (ev):

   -31.4888 -31.4751  -9.8553  -9.7651  -9.5115  -9.4579  -9.3648  -9.3423
     9.4821  10.0252  10.6580  10.7289  10.7546  10.8283  10.8402  10.8428
    10.8570  10.8622  10.8913  10.9277  10.9356  10.9525

          k = 0.0000-0.5773-0.3132 (  2900 PWs)   bands (ev):

   -31.4819 -31.4819  -9.8524  -9.8524  -9.4005  -9.4005  -9.3931  -9.3931
     9.6327   9.6327  10.6741  10.6741  10.8263  10.8263  10.8330  10.8330
    10.8545  10.8545  10.9233  10.9233  10.9411  10.9411

          k = 0.2500 0.1443 0.0000 (  2890 PWs)   bands (ev):

   -31.5201 -31.4762  -9.7839  -9.5769  -9.4812  -9.4109  -9.2761  -9.2756
     7.9329  10.2953  10.6886  10.7043  10.7210  10.7926  10.8426  10.8603
    10.8624  10.8978  10.9034  10.9060  10.9260  10.9492

          k = 0.2500 0.1443 0.1566 (  2875 PWs)   bands (ev):

   -31.5137 -31.4826  -9.7591  -9.5583  -9.5031  -9.3915  -9.3003  -9.2961
     8.2448  10.0432  10.6137  10.6703  10.7497  10.7947  10.8270  10.8404
    10.8635  10.8705  10.8903  10.9234  10.9467  10.9563

          k = 0.2500 0.1443-0.3132 (  2894 PWs)   bands (ev):

   -31.4982 -31.4982  -9.6722  -9.6722  -9.3899  -9.3899  -9.3441  -9.3441
     9.0829   9.0829  10.6299  10.6299  10.7881  10.7881  10.8237  10.8237
    10.8429  10.8429  10.9232  10.9232  10.9494  10.9494

          k = 0.2500 0.4330 0.0000 (  2910 PWs)   bands (ev):

   -31.4917 -31.4722  -9.7113  -9.6609  -9.6113  -9.5223  -9.4216  -9.3856
     9.7872  10.4581  10.7280  10.7388  10.7646  10.8332  10.8346  10.8364
    10.8723  10.8790  10.9028  10.9260  10.9296  10.9442

          k = 0.2500 0.4330 0.1566 (  2901 PWs)   bands (ev):

   -31.4889 -31.4750  -9.7546  -9.7305  -9.5577  -9.5005  -9.4255  -9.3394
     9.8582  10.3728  10.6979  10.7292  10.7505  10.7689  10.8356  10.8550
    10.8664  10.8782  10.8979  10.9111  10.9246  10.9380

          k = 0.2500 0.4330-0.3132 (  2888 PWs)   bands (ev):

   -31.4819 -31.4819  -9.7776  -9.7776  -9.5276  -9.5276  -9.3467  -9.3467
    10.0997  10.0997  10.6815  10.6815  10.7612  10.7612  10.8496  10.8496
    10.8611  10.8611  10.8972  10.8972  10.9266  10.9266

          k =-0.5000-0.2887 0.0000 (  2898 PWs)   bands (ev):

   -31.4916 -31.4723  -9.8120  -9.6977  -9.6085  -9.4792  -9.3885  -9.3156
     9.6592  10.1081  10.4131  10.7443  10.8312  10.8423  10.8450  10.8542
    10.8680  10.8792  10.8822  10.8946  10.9196  10.9239

          k =-0.5000-0.2887 0.1566 (  2884 PWs)   bands (ev):

   -31.4888 -31.4751  -9.8570  -9.7670  -9.5118  -9.4557  -9.3652  -9.3400
     9.4828  10.0265  10.6980  10.7545  10.7628  10.8390  10.8478  10.8532
    10.8707  10.8711  10.8795  10.8916  10.9238  10.9346

          k =-0.5000-0.2887-0.3132 (  2900 PWs)   bands (ev):

   -31.4819 -31.4819  -9.8541  -9.8541  -9.3983  -9.3983  -9.3935  -9.3935
     9.6327   9.6327  10.7165  10.7165  10.8214  10.8214  10.8521  10.8521
    10.8712  10.8712  10.8870  10.8870  10.9288  10.9288

          k =-0.5000 0.0000 0.0000 (  2910 PWs)   bands (ev):

   -31.4917 -31.4721  -9.7122  -9.6619  -9.6114  -9.5214  -9.4206  -9.3855
     9.7875  10.4621  10.7352  10.7428  10.7633  10.8247  10.8263  10.8375
    10.8812  10.8928  10.9086  10.9178  10.9212  10.9424

          k =-0.5000 0.0000 0.1566 (  2901 PWs)   bands (ev):

   -31.4889 -31.4750  -9.7552  -9.7315  -9.5568  -9.5009  -9.4245  -9.3394
     9.8584  10.3727  10.7047  10.7301  10.7589  10.7770  10.8304  10.8455
    10.8696  10.8887  10.8957  10.9082  10.9217  10.9395

          k =-0.5000 0.0000-0.3132 (  2888 PWs)   bands (ev):

   -31.4819 -31.4819  -9.7782  -9.7782  -9.5270  -9.5270  -9.3466  -9.3466
    10.0990  10.0990  10.6886  10.6886  10.7683  10.7683  10.8486  10.8486
    10.8585  10.8585  10.8949  10.8949  10.9277  10.9277

          k =-0.2500 0.1443 0.0000 (  2890 PWs)   bands (ev):

   -31.5201 -31.4762  -9.7840  -9.5759  -9.4802  -9.4120  -9.2771  -9.2755
     7.9327  10.2941  10.6833  10.7017  10.7019  10.7848  10.8585  10.8673
    10.8712  10.8857  10.8998  10.9138  10.9204  10.9423

          k =-0.2500 0.1443-0.1566 (  2875 PWs)   bands (ev):

   -31.5137 -31.4826  -9.7589  -9.5575  -9.5023  -9.3925  -9.3002  -9.2971
     8.2446  10.0422  10.6107  10.6677  10.7382  10.7722  10.8356  10.8505
    10.8626  10.8727  10.8980  10.9250  10.9307  10.9578

          k =-0.2500 0.1443 0.3132 (  2894 PWs)   bands (ev):

   -31.4982 -31.4982  -9.6716  -9.6716  -9.3894  -9.3894  -9.3451  -9.3451
     9.0828   9.0828  10.6275  10.6275  10.7654  10.7654  10.8320  10.8320
    10.8508  10.8508  10.9142  10.9142  10.9493  10.9493

          k =-0.2500 0.4330 0.0000 (  2910 PWs)   bands (ev):

   -31.4917 -31.4721  -9.7105  -9.6600  -9.6115  -9.5231  -9.4225  -9.3854
     9.7865  10.4515  10.7168  10.7348  10.7725  10.8325  10.8344  10.8494
    10.8579  10.8678  10.8956  10.9194  10.9445  10.9608

          k =-0.2500 0.4330-0.1566 (  2901 PWs)   bands (ev):

   -31.4889 -31.4750  -9.7541  -9.7295  -9.5587  -9.5004  -9.4264  -9.3394
     9.8580  10.3732  10.6975  10.7207  10.7343  10.7634  10.8365  10.8528
    10.8576  10.8733  10.9054  10.9133  10.9303  10.9402

          k =-0.2500 0.4330 0.3132 (  2888 PWs)   bands (ev):

   -31.4819 -31.4819  -9.7768  -9.7768  -9.5282  -9.5282  -9.3468  -9.3468
    10.1012  10.1012  10.6724  10.6724  10.7489  10.7489  10.8462  10.8462
    10.8596  10.8596  10.9102  10.9102  10.9231  10.9231

          k = 0.5000-0.2887 0.0000 (  2898 PWs)   bands (ev):

   -31.4916 -31.4722  -9.8110  -9.6966  -9.6089  -9.4802  -9.3882  -9.3167
     9.6577  10.1069  10.4072  10.7247  10.8146  10.8265  10.8498  10.8575
    10.8687  10.8699  10.8777  10.9034  10.9130  10.9432

          k = 0.5000-0.2887-0.1566 (  2884 PWs)   bands (ev):

   -31.4888 -31.4751  -9.8562  -9.7660  -9.5119  -9.4567  -9.3649  -9.3411
     9.4822  10.0261  10.6728  10.7409  10.7528  10.8274  10.8424  10.8509
    10.8645  10.8685  10.8788  10.9159  10.9262  10.9527

          k = 0.5000-0.2887 0.3132 (  2900 PWs)   bands (ev):

   -31.4819 -31.4819  -9.8532  -9.8532  -9.3994  -9.3994  -9.3933  -9.3933
     9.6330   9.6330  10.6905  10.6905  10.8164  10.8164  10.8413  10.8413
    10.8651  10.8651  10.9106  10.9106  10.9303  10.9303

     the Fermi energy is    10.8974 ev

!    total energy              =   -1366.90852317 Ry
     Harris-Foulkes estimate   =   -1366.90852206 Ry
     estimated scf accuracy    <       0.00000096 Ry

     total all-electron energy =     -1366.908523 Ry

     The total energy is the sum of the following terms:

     one-electron contribution =    -225.86377387 Ry
     hartree contribution      =     135.91237860 Ry
     xc contribution           =     -45.06121470 Ry
     ewald contribution        =    -300.20564845 Ry
     one-center paw contrib.   =    -931.64280159 Ry
     smearing contrib. (-TS)   =      -0.04746316 Ry

     convergence has been achieved in 219 iterations
     ethr =  2.94E-09,  avg # of iterations =  7.4
     ethr =  2.94E-09,  avg # of iterations =  2.1

     total cpu time spent up to now is     2607.4 secs

     End of self-consistent calculation

          k = 0.0000 0.0000 0.0000 (  2863 PWs)   bands (ev):

   -31.5437 -31.4847  -9.9022  -9.3393  -9.3367  -9.2429  -9.2403  -9.2191
     6.6722   9.3848  10.6968  10.7041  10.7621  10.7935  10.8146  10.8382
    10.8415  10.8826  10.8845  10.9019  10.9707  10.9913

          k = 0.0000 0.0000 0.1566 (  2893 PWs)   bands (ev):

   -31.5351 -31.4934  -9.8083  -9.3260  -9.3253  -9.3227  -9.2572  -9.2546
     7.0786   9.0949  10.6685  10.6855  10.7411  10.7862  10.8113  10.8215
    10.8291  10.8563  10.9167  10.9412  10.9880  11.0132

          k = 0.0000 0.0000-0.3132 (  2858 PWs)   bands (ev):

   -31.5143 -31.5143  -9.5736  -9.5736  -9.2914  -9.2914  -9.2888  -9.2888
     8.1050   8.1050  10.6431  10.6431  10.7868  10.7868  10.7907  10.7907
    10.8295  10.8295  10.9741  10.9741  11.0012  11.0012

          k = 0.0000 0.2887 0.0000 (  2890 PWs)   bands (ev):

   -31.5201 -31.4762  -9.7840  -9.5747  -9.4790  -9.4131  -9.2783  -9.2756
     7.9326  10.2935  10.6752  10.6990  10.7000  10.7822  10.8477  10.8708
    10.8832  10.8933  10.9031  10.9135  10.9191  10.9343

          k = 0.0000 0.2887 0.1566 (  2875 PWs)   bands (ev):

   -31.5137 -31.4826  -9.7587  -9.5566  -9.5013  -9.3937  -9.2999  -9.2983
     8.2445  10.0417  10.6084  10.6654  10.7335  10.7658  10.8333  10.8547
    10.8611  10.8716  10.9063  10.9287  10.9392  10.9519

          k = 0.0000 0.2887-0.3132 (  2894 PWs)   bands (ev):

   -31.4982 -31.4982  -9.6711  -9.6711  -9.3887  -9.3887  -9.3463  -9.3463
     9.0826   9.0826  10.6248  10.6248  10.7595  10.7595  10.8295  10.8295
    10.8544  10.8544  10.9195  10.9195  10.9433  10.9433

          k = 0.0000-0.5773 0.0000 (  2898 PWs)   bands (ev):

   -31.4916 -31.4723  -9.8099  -9.6955  -9.6087  -9.4814  -9.3884  -9.3179
     9.6575  10.1059  10.4055  10.7113  10.8122  10.8235  10.8447  10.8514
    10.8648  10.8713  10.8806  10.8981  10.9211  10.9534

          k = 0.0000-0.5773 0.1566 (  2884 PWs)   bands (ev):

   -31.4888 -31.4751  -9.8553  -9.7651  -9.5115  -9.4579  -9.3648  -9.3423
     9.4821  10.0252  10.6580  10.7289  10.7546  10.8283  10.8402  10.8428
    10.8570  10.8622  10.8913  10.9277  10.9356  10.9525

          k = 0.0000-0.5773-0.3132 (  2900 PWs)   bands (ev):

   -31.4819 -31.4819  -9.8524  -9.8524  -9.4005  -9.4005  -9.3931  -9.3931
     9.6327   9.6327  10.6741  10.6741  10.8263  10.8263  10.8330  10.8330
    10.8545  10.8545  10.9233  10.9233  10.9411  10.9411

          k = 0.2500 0.1443 0.0000 (  2890 PWs)   bands (ev):

   -31.5201 -31.4762  -9.7839  -9.5769  -9.4812  -9.4109  -9.2761  -9.2756
     7.9329  10.2953  10.6886  10.7043  10.7210  10.7926  10.8426  10.8603
    10.8624  10.8978  10.9034  10.9060  10.9260  10.9492

          k = 0.2500 0.1443 0.1566 (  2875 PWs)   bands (ev):

   -31.5137 -31.4826  -9.7591  -9.5583  -9.5031  -9.3915  -9.3003  -9.2961
     8.2448  10.0432  10.6137  10.6703  10.7497  10.7947  10.8270  10.8404
    10.8635  10.8705  10.8903  10.9234  10.9467  10.9563

          k = 0.2500 0.1443-0.3132 (  2894 PWs)   bands (ev):

   -31.4982 -31.4982  -9.6722  -9.6722  -9.3899  -9.3899  -9.3441  -9.3441
     9.0829   9.0829  10.6299  10.6299  10.7881  10.7881  10.8237  10.8237
    10.8429  10.8429  10.9232  10.9232  10.9494  10.9494

          k = 0.2500 0.4330 0.0000 (  2910 PWs)   bands (ev):

   -31.4917 -31.4722  -9.7113  -9.6609  -9.6113  -9.5223  -9.4216  -9.3856
     9.7872  10.4581  10.7280  10.7388  10.7646  10.8332  10.8346  10.8364
    10.8723  10.8790  10.9028  10.9260  10.9296  10.9442

          k = 0.2500 0.4330 0.1566 (  2901 PWs)   bands (ev):

   -31.4889 -31.4750  -9.7546  -9.7305  -9.5577  -9.5005  -9.4255  -9.3394
     9.8582  10.3728  10.6979  10.7292  10.7505  10.7689  10.8356  10.8550
    10.8664  10.8782  10.8979  10.9111  10.9246  10.9380

          k = 0.2500 0.4330-0.3132 (  2888 PWs)   bands (ev):

   -31.4819 -31.4819  -9.7776  -9.7776  -9.5276  -9.5276  -9.3467  -9.3467
    10.0997  10.0997  10.6815  10.6815  10.7612  10.7612  10.8496  10.8496
    10.8611  10.8611  10.8972  10.8972  10.9266  10.9266

          k =-0.5000-0.2887 0.0000 (  2898 PWs)   bands (ev):

   -31.4916 -31.4723  -9.8120  -9.6977  -9.6085  -9.4792  -9.3885  -9.3156
     9.6592  10.1081  10.4131  10.7443  10.8312  10.8423  10.8450  10.8542
    10.8680  10.8792  10.8822  10.8946  10.9196  10.9239

          k =-0.5000-0.2887 0.1566 (  2884 PWs)   bands (ev):

   -31.4888 -31.4751  -9.8570  -9.7670  -9.5118  -9.4557  -9.3652  -9.3400
     9.4828  10.0265  10.6980  10.7545  10.7628  10.8390  10.8478  10.8532
    10.8707  10.8711  10.8795  10.8916  10.9238  10.9346

          k =-0.5000-0.2887-0.3132 (  2900 PWs)   bands (ev):

   -31.4819 -31.4819  -9.8541  -9.8541  -9.3983  -9.3983  -9.3935  -9.3935
     9.6327   9.6327  10.7165  10.7165  10.8214  10.8214  10.8521  10.8521
    10.8712  10.8712  10.8870  10.8870  10.9288  10.9288

          k =-0.5000 0.0000 0.0000 (  2910 PWs)   bands (ev):

   -31.4917 -31.4721  -9.7122  -9.6619  -9.6114  -9.5214  -9.4206  -9.3855
     9.7875  10.4621  10.7352  10.7428  10.7633  10.8247  10.8263  10.8375
    10.8812  10.8928  10.9086  10.9178  10.9212  10.9424

          k =-0.5000 0.0000 0.1566 (  2901 PWs)   bands (ev):

   -31.4889 -31.4750  -9.7552  -9.7315  -9.5568  -9.5009  -9.4245  -9.3394
     9.8584  10.3727  10.7047  10.7301  10.7589  10.7770  10.8304  10.8455
    10.8696  10.8887  10.8957  10.9082  10.9217  10.9395

          k =-0.5000 0.0000-0.3132 (  2888 PWs)   bands (ev):

   -31.4819 -31.4819  -9.7782  -9.7782  -9.5270  -9.5270  -9.3466  -9.3466
    10.0990  10.0990  10.6886  10.6886  10.7683  10.7683  10.8486  10.8486
    10.8585  10.8585  10.8949  10.8949  10.9277  10.9277

          k =-0.2500 0.1443 0.0000 (  2890 PWs)   bands (ev):

   -31.5201 -31.4762  -9.7840  -9.5759  -9.4802  -9.4120  -9.2771  -9.2755
     7.9327  10.2941  10.6833  10.7017  10.7019  10.7848  10.8585  10.8673
    10.8712  10.8857  10.8998  10.9138  10.9204  10.9423

          k =-0.2500 0.1443-0.1566 (  2875 PWs)   bands (ev):

   -31.5137 -31.4826  -9.7589  -9.5575  -9.5023  -9.3925  -9.3002  -9.2971
     8.2446  10.0422  10.6107  10.6677  10.7382  10.7722  10.8356  10.8505
    10.8626  10.8727  10.8980  10.9250  10.9307  10.9578

          k =-0.2500 0.1443 0.3132 (  2894 PWs)   bands (ev):

   -31.4982 -31.4982  -9.6716  -9.6716  -9.3894  -9.3894  -9.3451  -9.3451
     9.0828   9.0828  10.6275  10.6275  10.7654  10.7654  10.8320  10.8320
    10.8508  10.8508  10.9142  10.9142  10.9493  10.9493

          k =-0.2500 0.4330 0.0000 (  2910 PWs)   bands (ev):

   -31.4917 -31.4721  -9.7105  -9.6600  -9.6115  -9.5231  -9.4225  -9.3854
     9.7865  10.4515  10.7168  10.7348  10.7725  10.8325  10.8344  10.8494
    10.8579  10.8678  10.8956  10.9194  10.9445  10.9608

          k =-0.2500 0.4330-0.1566 (  2901 PWs)   bands (ev):

   -31.4889 -31.4750  -9.7541  -9.7295  -9.5587  -9.5004  -9.4264  -9.3394
     9.8580  10.3732  10.6975  10.7207  10.7343  10.7634  10.8365  10.8528
    10.8576  10.8733  10.9054  10.9133  10.9303  10.9402

          k =-0.2500 0.4330 0.3132 (  2888 PWs)   bands (ev):

   -31.4819 -31.4819  -9.7768  -9.7768  -9.5282  -9.5282  -9.3468  -9.3468
    10.1012  10.1012  10.6724  10.6724  10.7489  10.7489  10.8462  10.8462
    10.8596  10.8596  10.9102  10.9102  10.9231  10.9231

          k = 0.5000-0.2887 0.0000 (  2898 PWs)   bands (ev):

   -31.4916 -31.4722  -9.8110  -9.6966  -9.6089  -9.4802  -9.3882  -9.3167
     9.6577  10.1069  10.4072  10.7247  10.8146  10.8265  10.8498  10.8575
    10.8687  10.8699  10.8777  10.9034  10.9130  10.9432

          k = 0.5000-0.2887-0.1566 (  2884 PWs)   bands (ev):

   -31.4888 -31.4751  -9.8562  -9.7660  -9.5119  -9.4567  -9.3649  -9.3411
     9.4822  10.0261  10.6728  10.7409  10.7528  10.8274  10.8424  10.8509
    10.8645  10.8685  10.8788  10.9159  10.9262  10.9527

          k = 0.5000-0.2887 0.3132 (  2900 PWs)   bands (ev):

   -31.4819 -31.4819  -9.8532  -9.8532  -9.3994  -9.3994  -9.3933  -9.3933
     9.6330   9.6330  10.6905  10.6905  10.8164  10.8164  10.8413  10.8413
    10.8651  10.8651  10.9106  10.9106  10.9303  10.9303

     the Fermi energy is    10.8974 ev

!    total energy              =   -1366.90852317 Ry
     Harris-Foulkes estimate   =   -1366.90852206 Ry
     estimated scf accuracy    <       0.00000096 Ry

     total all-electron energy =     -1366.908523 Ry

     The total energy is the sum of the following terms:

     one-electron contribution =    -225.86377387 Ry
     hartree contribution      =     135.91237860 Ry
     xc contribution           =     -45.06121470 Ry
     ewald contribution        =    -300.20564845 Ry
     one-center paw contrib.   =    -931.64280159 Ry
     smearing contrib. (-TS)   =      -0.04746316 Ry

     convergence has been achieved in 219 iterations
     ethr =  2.94E-09,  avg # of iterations =  2.1

     total cpu time spent up to now is     2607.9 secs

     total energy              =   -1366.90852157 Ry
     Harris-Foulkes estimate   =   -1366.90851972 Ry
     estimated scf accuracy    <       0.00000137 Ry

     iteration #219     ecut=    50.00 Ry     beta=0.70
     Davidson diagonalization with overlap

     Forces acting on atoms (cartesian axes, Ry/au):

     atom    1 type  1   force =    -0.00013175   -0.00001012    0.00000000
     atom    2 type  1   force =     0.00013175    0.00001012    0.00000000

     Total force =     0.000187     Total SCF correction =     0.000202
     SCF correction compared to forces is large: reduce conv_thr to get better values

     BFGS Geometry Optimization

     bfgs converged in   1 scf cycles and   0 bfgs steps
     (criteria: energy <  1.0E-04 Ry, force <  1.0E-03 Ry/Bohr)

     End of BFGS Geometry Optimization

     Final energy   =   -1366.9085231702 Ry
Begin final coordinates

ATOMIC_POSITIONS (crystal)
Gd       0.666700000   0.333300000   0.750000000
Gd       0.333300000   0.666700000   0.250000000
End final coordinates



     Writing output data file 2243.save
     ethr =  2.94E-09,  avg # of iterations =  8.5

     Forces acting on atoms (cartesian axes, Ry/au):

     atom    1 type  1   force =    -0.00013175   -0.00001012    0.00000000
     atom    2 type  1   force =     0.00013175    0.00001012    0.00000000

     Total force =     0.000187     Total SCF correction =     0.000202
     SCF correction compared to forces is large: reduce conv_thr to get better values

     BFGS Geometry Optimization

     bfgs converged in   1 scf cycles and   0 bfgs steps
     (criteria: energy <  1.0E-04 Ry, force <  1.0E-03 Ry/Bohr)

     End of BFGS Geometry Optimization

     Final energy   =   -1366.9085231702 Ry
Begin final coordinates

ATOMIC_POSITIONS (crystal)
Gd       0.666700000   0.333300000   0.750000000
Gd       0.333300000   0.666700000   0.250000000
End final coordinates



     Writing output data file 2243.save

     ethr =  2.94E-09,  avg # of iterations = 12.8
     total cpu time spent up to now is     2609.3 secs

     total energy              =   -1366.90851713 Ry
     Harris-Foulkes estimate   =   -1366.90851494 Ry
     estimated scf accuracy    <       0.00000130 Ry

     iteration #217     ecut=    50.00 Ry     beta=0.70
     Davidson diagonalization with overlap

     total cpu time spent up to now is     2609.5 secs

     total energy              =   -1366.90843577 Ry
     Harris-Foulkes estimate   =   -1366.90849292 Ry
     estimated scf accuracy    <       0.00000323 Ry

     iteration #216     ecut=    50.00 Ry     beta=0.70
     Davidson diagonalization with overlap
