
     Program PWSCF v.6.1 (svn rev. 13369) starts on 30Nov2022 at 11:36:57 

     This program is part of the open-source Quantum ESPRESSO suite
     for quantum simulation of materials; please cite
         "P. Giannozzi et al., J. Phys.:Condens. Matter 21 395502 (2009);
          URL http://www.quantum-espresso.org", 
     in publications or presentations arising from this work. More details at
     http://www.quantum-espresso.org/quote

     Parallel version (MPI), running on     8 processors
     R & G space division:  proc/nbgrp/npool/nimage =       8
     Reading input from ./Gd_1.1.in
Warning: card &IONS ignored
Warning: card 	ION_DYNAMICS='BFGS', ignored
Warning: card / ignored
Warning: card &CELL ignored
Warning: card / ignored
Warning: card H 1.00794 H.PBE-KJPAW_PSL.0.1.UPF ignored

     Current dimensions of program PWSCF are:
     Max number of different atomic species (ntypx) = 10
     Max number of k-points (npk) =  40000
     Max angular momentum in pseudopotentials (lmaxx) =  3
               file Gd.rel-pbe-spdn-kjpaw_psl.1.0.0.UPF: wavefunction(s)  5P 5P renormalized

     Subspace diagonalization in iterative solution of the eigenvalue problem:
     a serial algorithm will be used

 
     Parallelization info
     --------------------
     sticks:   dense  smooth     PW     G-vecs:    dense   smooth      PW
     Min          84      84     24                 2888     2888     454
     Max          85      85     25                 2897     2897     461
     Sum         673     673    199                23115    23115    3669
 


     bravais-lattice index     =            0
     lattice parameter (alat)  =       7.0498  a.u.
     unit-cell volume          =     484.4645 (a.u.)^3
     number of atoms/cell      =            2
     number of atomic types    =            1
     number of electrons       =        22.00
     number of Kohn-Sham states=           30
     kinetic-energy cutoff     =      50.0000  Ry
     charge density cutoff     =     200.0000  Ry
     convergence threshold     =      1.0E-06
     mixing beta               =       0.7000
     number of iterations used =            8  plain     mixing
     Exchange-correlation      =  SLA  PW   PBX  PBC ( 1  4  3  4 0 0)
     Non magnetic calculation with spin-orbit


     celldm(1)=   7.049812  celldm(2)=   0.000000  celldm(3)=   0.000000
     celldm(4)=   0.000000  celldm(5)=   0.000000  celldm(6)=   0.000000

     crystal axes: (cart. coord. in units of alat)
               a(1) = (   1.000000   0.000000   0.000000 )  
               a(2) = (  -0.500000   0.866027   0.000000 )  
               a(3) = (   0.000000   0.000000   1.596606 )  

     reciprocal axes: (cart. coord. in units 2 pi/alat)
               b(1) = (  1.000000  0.577349  0.000000 )  
               b(2) = (  0.000000  1.154699  0.000000 )  
               b(3) = (  0.000000  0.000000  0.626328 )  


     PseudoPot. # 1 for Gd read from file:
     /home/shaharpit/MeamGdH/dft/qe_potentials/Gd.rel-pbe-spdn-kjpaw_psl.1.0.0.UPF
     MD5 check sum: cf50ec46d1536b4a0251694df1946a53
     Pseudo is Projector augmented-wave + core cor, Zval = 11.0
     Generated using "atomic" code by A. Dal Corso  v.6.2.2
     Shape of augmentation charge: PSQ
     Using radial grid of 1263 points, 10 beta functions with: 
                l(1) =   0
                l(2) =   0
                l(3) =   1
                l(4) =   1
                l(5) =   1
                l(6) =   1
                l(7) =   2
                l(8) =   2
                l(9) =   2
               l(10) =   2
     Q(r) pseudized with 0 coefficients 


     atomic species   valence    mass     pseudopotential
        Gd            11.00   157.25000     Gd( 1.00)

      4 Sym. Ops., with inversion, found ( 2 have fractional translation)



   Cartesian axes

     site n.     atom                  positions (alat units)
         1           Gd  tau(   1) = (   0.5000500   0.2886468   1.1974548  )
         2           Gd  tau(   2) = (  -0.0000500   0.5773801   0.3991516  )

     number of k points=    30  gaussian smearing, width (Ry)=  0.0100
                       cart. coord. in units 2pi/alat
        k(    1) = (   0.0000000   0.0000000   0.0000000), wk =   0.0156250
        k(    2) = (   0.0000000   0.0000000   0.1565821), wk =   0.0312500
        k(    3) = (   0.0000000   0.0000000  -0.3131642), wk =   0.0156250
        k(    4) = (   0.0000000   0.2886746   0.0000000), wk =   0.0312500
        k(    5) = (   0.0000000   0.2886746   0.1565821), wk =   0.0625000
        k(    6) = (   0.0000000   0.2886746  -0.3131642), wk =   0.0312500
        k(    7) = (   0.0000000  -0.5773493   0.0000000), wk =   0.0156250
        k(    8) = (   0.0000000  -0.5773493   0.1565821), wk =   0.0312500
        k(    9) = (   0.0000000  -0.5773493  -0.3131642), wk =   0.0156250
        k(   10) = (   0.2500000   0.1443373   0.0000000), wk =   0.0312500
        k(   11) = (   0.2500000   0.1443373   0.1565821), wk =   0.0625000
        k(   12) = (   0.2500000   0.1443373  -0.3131642), wk =   0.0312500
        k(   13) = (   0.2500000   0.4330119   0.0000000), wk =   0.0312500
        k(   14) = (   0.2500000   0.4330119   0.1565821), wk =   0.0625000
        k(   15) = (   0.2500000   0.4330119  -0.3131642), wk =   0.0312500
        k(   16) = (  -0.5000000  -0.2886746   0.0000000), wk =   0.0156250
        k(   17) = (  -0.5000000  -0.2886746   0.1565821), wk =   0.0312500
        k(   18) = (  -0.5000000  -0.2886746  -0.3131642), wk =   0.0156250
        k(   19) = (  -0.5000000   0.0000000   0.0000000), wk =   0.0312500
        k(   20) = (  -0.5000000   0.0000000   0.1565821), wk =   0.0625000
        k(   21) = (  -0.5000000   0.0000000  -0.3131642), wk =   0.0312500
        k(   22) = (  -0.2500000   0.1443373   0.0000000), wk =   0.0312500
        k(   23) = (  -0.2500000   0.1443373  -0.1565821), wk =   0.0625000
        k(   24) = (  -0.2500000   0.1443373   0.3131642), wk =   0.0312500
        k(   25) = (  -0.2500000   0.4330119   0.0000000), wk =   0.0312500
        k(   26) = (  -0.2500000   0.4330119  -0.1565821), wk =   0.0625000
        k(   27) = (  -0.2500000   0.4330119   0.3131642), wk =   0.0312500
        k(   28) = (   0.5000000  -0.2886746   0.0000000), wk =   0.0156250
        k(   29) = (   0.5000000  -0.2886746  -0.1565821), wk =   0.0312500
        k(   30) = (   0.5000000  -0.2886746   0.3131642), wk =   0.0156250

     Dense  grid:    23115 G-vectors     FFT dimensions: (  32,  32,  54)

     Estimated max dynamical RAM per process >      18.88MB

     Estimated total allocated dynamical RAM >     151.06MB

     Initial potential from superposition of free atoms

     starting charge   21.96191, renormalised to   22.00000
     Starting wfc are   52 randomized atomic wfcs
     Checking if some PAW data can be deallocated... 

     total cpu time spent up to now is        3.3 secs

     per-process dynamical memory:    52.3 Mb

     Self-consistent Calculation

     iteration #  1     ecut=    50.00 Ry     beta=0.70
     Davidson diagonalization with overlap
     ethr =  1.00E-02,  avg # of iterations =  2.0

     Threshold (ethr) on eigenvalues was too large:
     Diagonalizing with lowered threshold

     Davidson diagonalization with overlap
     ethr =  5.83E-05,  avg # of iterations =  2.9

     total cpu time spent up to now is        6.5 secs

     total energy              =   -1119.22411624 Ry
     Harris-Foulkes estimate   =   -1119.23482166 Ry
     estimated scf accuracy    <       0.01897190 Ry

     iteration #  2     ecut=    50.00 Ry     beta=0.70
     Davidson diagonalization with overlap
     ethr =  8.62E-05,  avg # of iterations =  2.0

     total cpu time spent up to now is        8.2 secs

     total energy              =   -1119.22751302 Ry
     Harris-Foulkes estimate   =   -1119.22767054 Ry
     estimated scf accuracy    <       0.00052129 Ry

     iteration #  3     ecut=    50.00 Ry     beta=0.70
     Davidson diagonalization with overlap
     ethr =  2.37E-06,  avg # of iterations =  2.0

     total cpu time spent up to now is       10.1 secs

     total energy              =   -1119.22758622 Ry
     Harris-Foulkes estimate   =   -1119.22758314 Ry
     estimated scf accuracy    <       0.00003720 Ry

     iteration #  4     ecut=    50.00 Ry     beta=0.70
     Davidson diagonalization with overlap
     ethr =  1.69E-07,  avg # of iterations =  2.1

     total cpu time spent up to now is       11.6 secs

     End of self-consistent calculation

          k = 0.0000 0.0000 0.0000 (  2863 PWs)   bands (ev):

   -35.0156 -35.0156 -34.9645 -34.9645 -15.7316 -15.7316 -15.5477 -15.5477
   -11.6141 -11.6141 -11.2483 -11.2483 -11.1501 -11.1501 -11.1264 -11.1264
     4.7500   4.7500   7.3599   7.3599  10.3737  10.3737  10.8504  10.8504
    11.0666  11.0667  11.0954  11.0954  11.4047  11.4049

          k = 0.0000 0.0000 0.1566 (  2893 PWs)   bands (ev):

   -35.0082 -35.0082 -34.9720 -34.9720 -15.7041 -15.7041 -15.5741 -15.5741
   -11.5481 -11.5481 -11.2340 -11.2340 -11.2037 -11.2037 -11.1646 -11.1646
     5.1441   5.1441   7.0913   7.0913  10.0308  10.0308  10.7443  10.7443
    10.7469  10.7469  10.9347  10.9347  11.1616  11.1617

          k = 0.0000 0.0000-0.3132 (  2858 PWs)   bands (ev):

   -34.9902 -34.9902 -34.9902 -34.9902 -15.6386 -15.6386 -15.6386 -15.6386
   -11.3815 -11.3815 -11.3815 -11.3815 -11.1994 -11.1994 -11.1994 -11.1994
     6.1416   6.1416   6.1416   6.1416  10.1287  10.1287  10.1288  10.1288
    10.8157  10.8157  10.8158  10.8163  10.9858  10.9858

          k = 0.0000 0.2887 0.0000 (  2890 PWs)   bands (ev):

   -34.9952 -34.9952 -34.9571 -34.9571 -15.7538 -15.7538 -15.6234 -15.6234
   -11.5959 -11.5959 -11.3763 -11.3763 -11.3416 -11.3416 -11.1837 -11.1837
     5.9741   5.9741   8.3253   8.3253   9.2556   9.2556   9.6727   9.6727
    10.6293  10.6294  11.1069  11.1069  11.2928  11.2929

          k = 0.0000 0.2887 0.1566 (  2875 PWs)   bands (ev):

   -34.9896 -34.9896 -34.9627 -34.9627 -15.7350 -15.7350 -15.6427 -15.6427
   -11.5618 -11.5618 -11.3879 -11.3879 -11.3417 -11.3417 -11.2086 -11.2086
     6.2784   6.2784   8.0625   8.0625   9.0911   9.0911   9.7753   9.7753
    10.4501  10.4501  10.9281  10.9282  11.3660  11.3661

          k = 0.0000 0.2887-0.3132 (  2894 PWs)   bands (ev):

   -34.9762 -34.9762 -34.9762 -34.9762 -15.6891 -15.6891 -15.6891 -15.6891
   -11.4772 -11.4772 -11.4771 -11.4771 -11.2742 -11.2742 -11.2742 -11.2742
     7.0994   7.0994   7.0994   7.0994   9.5381   9.5381   9.5381   9.5382
    10.4473  10.4473  10.4473  10.4474  11.7018  11.7019

          k = 0.0000-0.5773 0.0000 (  2898 PWs)   bands (ev):

   -34.9705 -34.9705 -34.9537 -34.9537 -15.7643 -15.7643 -15.7144 -15.7144
   -11.5682 -11.5682 -11.5665 -11.5665 -11.4413 -11.4413 -11.2558 -11.2558
     7.6366   7.6366   8.0730   8.0730   8.4451   8.4451   9.4408   9.4408
    10.6120  10.6120  10.7311  10.7311  11.2980  11.2980

          k = 0.0000-0.5773 0.1566 (  2884 PWs)   bands (ev):

   -34.9681 -34.9681 -34.9562 -34.9562 -15.7580 -15.7580 -15.7227 -15.7227
   -11.5990 -11.5990 -11.5815 -11.5815 -11.3838 -11.3838 -11.2619 -11.2619
     7.4568   7.4568   8.0300   8.0300   9.0111   9.0111   9.1178   9.1178
    10.8670  10.8670  10.9336  10.9336  11.1596  11.1596

          k = 0.0000-0.5773-0.3132 (  2900 PWs)   bands (ev):

   -34.9621 -34.9621 -34.9621 -34.9621 -15.7413 -15.7413 -15.7413 -15.7413
   -11.6078 -11.6078 -11.6078 -11.6078 -11.3027 -11.3027 -11.3027 -11.3027
     7.6179   7.6179   7.6179   7.6179   9.3028   9.3028   9.3028   9.3028
    10.8281  10.8281  10.8281  10.8282  12.0644  12.0644

          k = 0.2500 0.1443 0.0000 (  2890 PWs)   bands (ev):

   -34.9952 -34.9952 -34.9571 -34.9571 -15.7538 -15.7538 -15.6234 -15.6234
   -11.5959 -11.5959 -11.3763 -11.3763 -11.3416 -11.3416 -11.1837 -11.1837
     5.9741   5.9741   8.3253   8.3253   9.2556   9.2556   9.6727   9.6727
    10.6294  10.6294  11.1069  11.1070  11.2928  11.2929

          k = 0.2500 0.1443 0.1566 (  2875 PWs)   bands (ev):

   -34.9896 -34.9896 -34.9627 -34.9627 -15.7350 -15.7350 -15.6427 -15.6427
   -11.5618 -11.5618 -11.3879 -11.3879 -11.3417 -11.3417 -11.2087 -11.2087
     6.2784   6.2784   8.0625   8.0625   9.0911   9.0911   9.7753   9.7753
    10.4501  10.4501  10.9282  10.9282  11.3660  11.3661

          k = 0.2500 0.1443-0.3132 (  2894 PWs)   bands (ev):

   -34.9762 -34.9762 -34.9762 -34.9762 -15.6891 -15.6891 -15.6891 -15.6891
   -11.4772 -11.4772 -11.4771 -11.4771 -11.2742 -11.2742 -11.2742 -11.2742
     7.0994   7.0994   7.0994   7.0994   9.5381   9.5381   9.5382   9.5382
    10.4473  10.4473  10.4473  10.4474  11.7018  11.7018

          k = 0.2500 0.4330 0.0000 (  2910 PWs)   bands (ev):

   -34.9706 -34.9706 -34.9536 -34.9536 -15.7652 -15.7652 -15.7107 -15.7107
   -11.5510 -11.5510 -11.5221 -11.5221 -11.4605 -11.4605 -11.3095 -11.3095
     7.7822   7.7822   8.6311   8.6311   8.9316   8.9316   9.0188   9.0188
    10.2686  10.2686  10.7269  10.7269  11.0541  11.0541

          k = 0.2500 0.4330 0.1566 (  2901 PWs)   bands (ev):

   -34.9681 -34.9681 -34.9561 -34.9561 -15.7582 -15.7582 -15.7196 -15.7196
   -11.5975 -11.5975 -11.5203 -11.5203 -11.4197 -11.4197 -11.3001 -11.3001
     7.8679   7.8679   8.4637   8.4637   9.0507   9.0507   9.3198   9.3198
    10.1961  10.1961  10.2664  10.2664  11.1126  11.1127

          k = 0.2500 0.4330-0.3132 (  2888 PWs)   bands (ev):

   -34.9621 -34.9621 -34.9621 -34.9621 -15.7415 -15.7415 -15.7382 -15.7382
   -11.6231 -11.6231 -11.5305 -11.5305 -11.3844 -11.3844 -11.2944 -11.2944
     8.1104   8.1104   8.1690   8.1690   9.4041   9.4041   9.4493   9.4493
     9.9352   9.9352   9.9666   9.9666  11.6290  11.6295

          k =-0.5000-0.2887 0.0000 (  2898 PWs)   bands (ev):

   -34.9705 -34.9705 -34.9537 -34.9537 -15.7643 -15.7643 -15.7144 -15.7144
   -11.5682 -11.5682 -11.5665 -11.5665 -11.4413 -11.4413 -11.2558 -11.2558
     7.6366   7.6366   8.0730   8.0730   8.4451   8.4451   9.4408   9.4408
    10.6120  10.6120  10.7311  10.7311  11.2980  11.2980

          k =-0.5000-0.2887 0.1566 (  2884 PWs)   bands (ev):

   -34.9681 -34.9681 -34.9562 -34.9562 -15.7580 -15.7580 -15.7227 -15.7227
   -11.5990 -11.5990 -11.5815 -11.5815 -11.3838 -11.3838 -11.2619 -11.2619
     7.4568   7.4568   8.0300   8.0300   9.0111   9.0111   9.1178   9.1178
    10.8670  10.8670  10.9336  10.9336  11.1596  11.1596

          k =-0.5000-0.2887-0.3132 (  2900 PWs)   bands (ev):

   -34.9621 -34.9621 -34.9621 -34.9621 -15.7413 -15.7413 -15.7413 -15.7413
   -11.6078 -11.6078 -11.6078 -11.6078 -11.3027 -11.3027 -11.3027 -11.3027
     7.6179   7.6179   7.6179   7.6179   9.3028   9.3028   9.3028   9.3028
    10.8281  10.8281  10.8281  10.8282  12.0643  12.0643

          k =-0.5000 0.0000 0.0000 (  2910 PWs)   bands (ev):

   -34.9706 -34.9706 -34.9536 -34.9536 -15.7653 -15.7653 -15.7107 -15.7107
   -11.5510 -11.5510 -11.5221 -11.5221 -11.4605 -11.4605 -11.3094 -11.3094
     7.7821   7.7821   8.6308   8.6308   8.9317   8.9317   9.0186   9.0186
    10.2686  10.2686  10.7272  10.7272  11.0538  11.0538

          k =-0.5000 0.0000 0.1566 (  2901 PWs)   bands (ev):

   -34.9681 -34.9681 -34.9561 -34.9561 -15.7582 -15.7582 -15.7196 -15.7196
   -11.5975 -11.5975 -11.5203 -11.5203 -11.4197 -11.4197 -11.3001 -11.3001
     7.8679   7.8679   8.4636   8.4636   9.0508   9.0508   9.3194   9.3194
    10.1964  10.1964  10.2666  10.2666  11.1124  11.1124

          k =-0.5000 0.0000-0.3132 (  2888 PWs)   bands (ev):

   -34.9621 -34.9621 -34.9621 -34.9621 -15.7415 -15.7415 -15.7382 -15.7382
   -11.6231 -11.6231 -11.5304 -11.5304 -11.3844 -11.3844 -11.2945 -11.2945
     8.1105   8.1105   8.1691   8.1691   9.4043   9.4043   9.4496   9.4496
     9.9349   9.9349   9.9664   9.9664  11.6289  11.6297

          k =-0.2500 0.1443 0.0000 (  2890 PWs)   bands (ev):

   -34.9952 -34.9952 -34.9571 -34.9571 -15.7539 -15.7539 -15.6234 -15.6234
   -11.5959 -11.5959 -11.3763 -11.3763 -11.3416 -11.3416 -11.1837 -11.1837
     5.9740   5.9740   8.3250   8.3250   9.2552   9.2552   9.6729   9.6729
    10.6295  10.6296  11.1079  11.1080  11.2926  11.2927

          k =-0.2500 0.1443-0.1566 (  2875 PWs)   bands (ev):

   -34.9896 -34.9896 -34.9627 -34.9627 -15.7350 -15.7350 -15.6427 -15.6427
   -11.5618 -11.5618 -11.3878 -11.3878 -11.3418 -11.3418 -11.2086 -11.2086
     6.2784   6.2784   8.0623   8.0623   9.0909   9.0909   9.7753   9.7753
    10.4507  10.4507  10.9285  10.9285  11.3659  11.3659

          k =-0.2500 0.1443 0.3132 (  2894 PWs)   bands (ev):

   -34.9762 -34.9762 -34.9762 -34.9762 -15.6891 -15.6891 -15.6891 -15.6891
   -11.4771 -11.4771 -11.4771 -11.4771 -11.2742 -11.2742 -11.2742 -11.2742
     7.0994   7.0994   7.0994   7.0994   9.5381   9.5381   9.5381   9.5381
    10.4476  10.4476  10.4476  10.4476  11.7019  11.7020

          k =-0.2500 0.4330 0.0000 (  2910 PWs)   bands (ev):

   -34.9706 -34.9706 -34.9536 -34.9536 -15.7653 -15.7653 -15.7107 -15.7107
   -11.5510 -11.5510 -11.5221 -11.5221 -11.4605 -11.4605 -11.3094 -11.3094
     7.7821   7.7821   8.6308   8.6308   8.9317   8.9317   9.0186   9.0186
    10.2686  10.2686  10.7272  10.7272  11.0538  11.0538

          k =-0.2500 0.4330-0.1566 (  2901 PWs)   bands (ev):

   -34.9681 -34.9681 -34.9561 -34.9561 -15.7582 -15.7582 -15.7196 -15.7196
   -11.5975 -11.5975 -11.5203 -11.5203 -11.4197 -11.4197 -11.3001 -11.3001
     7.8679   7.8679   8.4636   8.4636   9.0508   9.0508   9.3194   9.3194
    10.1964  10.1964  10.2666  10.2666  11.1124  11.1124

          k =-0.2500 0.4330 0.3132 (  2888 PWs)   bands (ev):

   -34.9621 -34.9621 -34.9621 -34.9621 -15.7415 -15.7415 -15.7382 -15.7382
   -11.6231 -11.6231 -11.5304 -11.5304 -11.3844 -11.3844 -11.2945 -11.2945
     8.1105   8.1105   8.1691   8.1691   9.4043   9.4043   9.4496   9.4496
     9.9349   9.9349   9.9664   9.9664  11.6291  11.6299

          k = 0.5000-0.2887 0.0000 (  2898 PWs)   bands (ev):

   -34.9706 -34.9706 -34.9537 -34.9537 -15.7644 -15.7644 -15.7143 -15.7143
   -11.5682 -11.5682 -11.5664 -11.5664 -11.4415 -11.4415 -11.2557 -11.2557
     7.6360   7.6360   8.0730   8.0730   8.4444   8.4444   9.4410   9.4410
    10.6134  10.6134  10.7310  10.7310  11.2986  11.2986

          k = 0.5000-0.2887-0.1566 (  2884 PWs)   bands (ev):

   -34.9681 -34.9681 -34.9562 -34.9562 -15.7580 -15.7580 -15.7226 -15.7226
   -11.5990 -11.5990 -11.5815 -11.5815 -11.3840 -11.3840 -11.2618 -11.2618
     7.4567   7.4567   8.0302   8.0302   9.0104   9.0104   9.1177   9.1177
    10.8674  10.8674  10.9342  10.9343  11.1597  11.1597

          k = 0.5000-0.2887 0.3132 (  2900 PWs)   bands (ev):

   -34.9621 -34.9621 -34.9621 -34.9621 -15.7413 -15.7413 -15.7413 -15.7413
   -11.6077 -11.6077 -11.6077 -11.6077 -11.3027 -11.3027 -11.3027 -11.3027
     7.6182   7.6182   7.6182   7.6182   9.3025   9.3025   9.3025   9.3025
    10.8282  10.8282  10.8283  10.8283  12.0642  12.0642

     the Fermi energy is     9.2993 ev

!    total energy              =   -1119.22758891 Ry
     Harris-Foulkes estimate   =   -1119.22758883 Ry
     estimated scf accuracy    <       0.00000015 Ry

     total all-electron energy =    -45121.399295 Ry

     The total energy is the sum of the following terms:

     one-electron contribution =     -30.54441833 Ry
     hartree contribution      =      22.97469902 Ry
     xc contribution           =    -125.51604530 Ry
     ewald contribution        =    -112.11383787 Ry
     one-center paw contrib.   =    -874.02511756 Ry
     smearing contrib. (-TS)   =      -0.00286887 Ry

     convergence has been achieved in   4 iterations

     Writing output data file 2345.save
 
     init_run     :      0.99s CPU      1.75s WALL (       1 calls)
     electrons    :      8.10s CPU      8.44s WALL (       1 calls)

     Called by init_run:
     wfcinit      :      0.68s CPU      0.86s WALL (       1 calls)
     potinit      :      0.13s CPU      0.21s WALL (       1 calls)

     Called by electrons:
     c_bands      :      6.13s CPU      6.33s WALL (       5 calls)
     sum_band     :      1.27s CPU      1.31s WALL (       5 calls)
     v_of_rho     :      0.02s CPU      0.03s WALL (       5 calls)
     newd         :      0.28s CPU      0.34s WALL (       5 calls)
     PAW_pot      :      0.55s CPU      0.60s WALL (       5 calls)
     mix_rho      :      0.01s CPU      0.01s WALL (       5 calls)

     Called by c_bands:
     init_us_2    :      0.05s CPU      0.05s WALL (     330 calls)
     cegterg      :      5.16s CPU      5.34s WALL (     150 calls)

     Called by sum_band:
     sum_band:bec :      0.31s CPU      0.31s WALL (     150 calls)
     addusdens    :      0.14s CPU      0.15s WALL (       5 calls)

     Called by *egterg:
     h_psi        :      4.03s CPU      4.25s WALL (     509 calls)
     s_psi        :      0.28s CPU      0.28s WALL (     509 calls)
     g_psi        :      0.03s CPU      0.03s WALL (     329 calls)
     cdiaghg      :      0.60s CPU      0.72s WALL (     449 calls)

     Called by h_psi:
     h_psi:pot    :      3.99s CPU      4.21s WALL (     509 calls)
     h_psi:calbec :      0.23s CPU      0.26s WALL (     509 calls)
     vloc_psi     :      3.45s CPU      3.64s WALL (     509 calls)
     add_vuspsi   :      0.31s CPU      0.31s WALL (     509 calls)

     General routines
     calbec       :      0.31s CPU      0.34s WALL (     659 calls)
     fft          :      0.02s CPU      0.28s WALL (      97 calls)
     fftw         :      3.47s CPU      3.65s WALL (   59408 calls)
     davcio       :      0.00s CPU      0.01s WALL (      30 calls)
 
     Parallel routines
     fft_scatter  :      1.58s CPU      1.68s WALL (   59505 calls)
 
     PWSCF        :    21.06s CPU        36.01s WALL

 
   This run was terminated on:  11:37:33  30Nov2022            

=------------------------------------------------------------------------------=
   JOB DONE.
=------------------------------------------------------------------------------=
Removing 2345 from /home/shaharpit/tmp
