
     Program PWSCF v.6.1 (svn rev. 13369) starts on  3Jul2022 at 12:25:51 

     This program is part of the open-source Quantum ESPRESSO suite
     for quantum simulation of materials; please cite
         "P. Giannozzi et al., J. Phys.:Condens. Matter 21 395502 (2009);
          URL http://www.quantum-espresso.org", 
     in publications or presentations arising from this work. More details at
     http://www.quantum-espresso.org/quote

     Parallel version (MPI), running on     1 processors


     Program PWSCF v.6.1 (svn rev. 13369) starts on  3Jul2022 at 12:25:51 

     This program is part of the open-source Quantum ESPRESSO suite
     for quantum simulation of materials; please cite
         "P. Giannozzi et al., J. Phys.:Condens. Matter 21 395502 (2009);
          URL http://www.quantum-espresso.org", 
     in publications or presentations arising from this work. More details at
     http://www.quantum-espresso.org/quote

     Program PWSCF v.6.1 (svn rev. 13369) starts on  3Jul2022 at 12:25:51 

     This program is part of the open-source Quantum ESPRESSO suite
     for quantum simulation of materials; please cite
         "P. Giannozzi et al., J. Phys.:Condens. Matter 21 395502 (2009);
          URL http://www.quantum-espresso.org", 
     in publications or presentations arising from this work. More details at
     http://www.quantum-espresso.org/quote

     Parallel version (MPI), running on     1 processors

     Program PWSCF v.6.1 (svn rev. 13369) starts on  3Jul2022 at 12:25:51 

     This program is part of the open-source Quantum ESPRESSO suite
     for quantum simulation of materials; please cite
         "P. Giannozzi et al., J. Phys.:Condens. Matter 21 395502 (2009);
          URL http://www.quantum-espresso.org", 
     in publications or presentations arising from this work. More details at
     http://www.quantum-espresso.org/quote

     Parallel version (MPI), running on     1 processors



     Program PWSCF v.6.1 (svn rev. 13369) starts on  3Jul2022 at 12:25:51 

     This program is part of the open-source Quantum ESPRESSO suite
     for quantum simulation of materials; please cite
         "P. Giannozzi et al., J. Phys.:Condens. Matter 21 395502 (2009);
          URL http://www.quantum-espresso.org", 
     in publications or presentations arising from this work. More details at
     http://www.quantum-espresso.org/quote

     Parallel version (MPI), running on     1 processors

     Program PWSCF v.6.1 (svn rev. 13369) starts on  3Jul2022 at 12:25:51 

     This program is part of the open-source Quantum ESPRESSO suite
     for quantum simulation of materials; please cite
         "P. Giannozzi et al., J. Phys.:Condens. Matter 21 395502 (2009);
          URL http://www.quantum-espresso.org", 
     in publications or presentations arising from this work. More details at
     http://www.quantum-espresso.org/quote

     Parallel version (MPI), running on     1 processors

     Program PWSCF v.6.1 (svn rev. 13369) starts on  3Jul2022 at 12:25:51 

     This program is part of the open-source Quantum ESPRESSO suite
     for quantum simulation of materials; please cite
         "P. Giannozzi et al., J. Phys.:Condens. Matter 21 395502 (2009);
          URL http://www.quantum-espresso.org", 
     in publications or presentations arising from this work. More details at
     http://www.quantum-espresso.org/quote

     Parallel version (MPI), running on     1 processors

     Program PWSCF v.6.1 (svn rev. 13369) starts on  3Jul2022 at 12:25:51 

     This program is part of the open-source Quantum ESPRESSO suite
     for quantum simulation of materials; please cite
         "P. Giannozzi et al., J. Phys.:Condens. Matter 21 395502 (2009);
          URL http://www.quantum-espresso.org", 
     in publications or presentations arising from this work. More details at
     http://www.quantum-espresso.org/quote

     Parallel version (MPI), running on     1 processors

     Program PWSCF v.6.1 (svn rev. 13369) starts on  3Jul2022 at 12:25:51 

     This program is part of the open-source Quantum ESPRESSO suite
     for quantum simulation of materials; please cite
         "P. Giannozzi et al., J. Phys.:Condens. Matter 21 395502 (2009);
          URL http://www.quantum-espresso.org", 
     in publications or presentations arising from this work. More details at
     http://www.quantum-espresso.org/quote

     Parallel version (MPI), running on     1 processors

     Program PWSCF v.6.1 (svn rev. 13369) starts on  3Jul2022 at 12:25:51 

     This program is part of the open-source Quantum ESPRESSO suite
     for quantum simulation of materials; please cite
         "P. Giannozzi et al., J. Phys.:Condens. Matter 21 395502 (2009);
          URL http://www.quantum-espresso.org", 
     in publications or presentations arising from this work. More details at
     http://www.quantum-espresso.org/quote

     Parallel version (MPI), running on     1 processors
     Program PWSCF v.6.1 (svn rev. 13369) starts on  3Jul2022 at 12:25:51 

     This program is part of the open-source Quantum ESPRESSO suite
     for quantum simulation of materials; please cite
         "P. Giannozzi et al., J. Phys.:Condens. Matter 21 395502 (2009);
          URL http://www.quantum-espresso.org", 
     in publications or presentations arising from this work. More details at
     http://www.quantum-espresso.org/quote

     Parallel version (MPI), running on     1 processors

     Parallel version (MPI), running on     1 processors
     Program PWSCF v.6.1 (svn rev. 13369) starts on  3Jul2022 at 12:25:51 

     This program is part of the open-source Quantum ESPRESSO suite
     for quantum simulation of materials; please cite
         "P. Giannozzi et al., J. Phys.:Condens. Matter 21 395502 (2009);
          URL http://www.quantum-espresso.org", 
     in publications or presentations arising from this work. More details at
     http://www.quantum-espresso.org/quote

     Parallel version (MPI), running on     1 processors
     Program PWSCF v.6.1 (svn rev. 13369) starts on  3Jul2022 at 12:25:51 

     This program is part of the open-source Quantum ESPRESSO suite
     for quantum simulation of materials; please cite
         "P. Giannozzi et al., J. Phys.:Condens. Matter 21 395502 (2009);
          URL http://www.quantum-espresso.org", 
     in publications or presentations arising from this work. More details at
     http://www.quantum-espresso.org/quote

     Parallel version (MPI), running on     1 processors

     Program PWSCF v.6.1 (svn rev. 13369) starts on  3Jul2022 at 12:25:51 

     This program is part of the open-source Quantum ESPRESSO suite
     for quantum simulation of materials; please cite
         "P. Giannozzi et al., J. Phys.:Condens. Matter 21 395502 (2009);
          URL http://www.quantum-espresso.org", 
     in publications or presentations arising from this work. More details at
     http://www.quantum-espresso.org/quote

     Parallel version (MPI), running on     1 processors

     Program PWSCF v.6.1 (svn rev. 13369) starts on  3Jul2022 at 12:25:51 

     This program is part of the open-source Quantum ESPRESSO suite
     for quantum simulation of materials; please cite
         "P. Giannozzi et al., J. Phys.:Condens. Matter 21 395502 (2009);
          URL http://www.quantum-espresso.org", 
     in publications or presentations arising from this work. More details at
     http://www.quantum-espresso.org/quote

     Parallel version (MPI), running on     1 processors

     Program PWSCF v.6.1 (svn rev. 13369) starts on  3Jul2022 at 12:25:51 

     This program is part of the open-source Quantum ESPRESSO suite
     for quantum simulation of materials; please cite
         "P. Giannozzi et al., J. Phys.:Condens. Matter 21 395502 (2009);
          URL http://www.quantum-espresso.org", 
     in publications or presentations arising from this work. More details at
     http://www.quantum-espresso.org/quote

     Parallel version (MPI), running on     1 processors
     Reading input from ./Gd_1.in
     Reading input from ./Gd_1.in
     Reading input from ./Gd_1.in
     Reading input from ./Gd_1.in
     Reading input from ./Gd_1.in
     Reading input from ./Gd_1.in
     Reading input from ./Gd_1.in
     Reading input from ./Gd_1.in
     Reading input from ./Gd_1.in
     Reading input from ./Gd_1.in
     Reading input from ./Gd_1.in
     Reading input from ./Gd_1.in
     Reading input from ./Gd_1.in
     Reading input from ./Gd_1.in
     Reading input from ./Gd_1.in
     Reading input from ./Gd_1.in
Warning: card &CELL ignored
Warning: card / ignored
Warning: card &CELL ignored
Warning: card / ignored
Warning: card &CELL ignored
Warning: card / ignored
Warning: card &CELL ignored
Warning: card / ignored
Warning: card H 1.00794 H.PBE-RRKJUS_PSL.1.0.0.UPF ignored
Warning: card &CELL ignored
Warning: card / ignored
Warning: card H 1.00794 H.PBE-RRKJUS_PSL.1.0.0.UPF ignored
Warning: card H 1.00794 H.PBE-RRKJUS_PSL.1.0.0.UPF ignored
Warning: card H 1.00794 H.PBE-RRKJUS_PSL.1.0.0.UPF ignored
Warning: card &CELL ignored
Warning: card / ignored
Warning: card H 1.00794 H.PBE-RRKJUS_PSL.1.0.0.UPF ignored
Warning: card &CELL ignored
Warning: card / ignored
Warning: card H 1.00794 H.PBE-RRKJUS_PSL.1.0.0.UPF ignored
Warning: card &CELL ignored
Warning: card / ignored
Warning: card H 1.00794 H.PBE-RRKJUS_PSL.1.0.0.UPF ignored
Warning: card &CELL ignored
Warning: card H 1.00794 H.PBE-RRKJUS_PSL.1.0.0.UPF ignored
Warning: card / ignored
Warning: card H 1.00794 H.PBE-RRKJUS_PSL.1.0.0.UPF ignored
Warning: card &CELL ignored
Warning: card / ignored
Warning: card &CELL ignored
Warning: card / ignored
Warning: card H 1.00794 H.PBE-RRKJUS_PSL.1.0.0.UPF ignored
Warning: card H 1.00794 H.PBE-RRKJUS_PSL.1.0.0.UPF ignored
Warning: card &CELL ignored
Warning: card / ignored
Warning: card H 1.00794 H.PBE-RRKJUS_PSL.1.0.0.UPF ignored
Warning: card &CELL ignored
Warning: card &CELL ignored
Warning: card / ignored
Warning: card / ignored
Warning: card H 1.00794 H.PBE-RRKJUS_PSL.1.0.0.UPF ignored
Warning: card H 1.00794 H.PBE-RRKJUS_PSL.1.0.0.UPF ignored
Warning: card &CELL ignored
Warning: card / ignored
Warning: card &CELL ignored
Warning: card / ignored
Warning: card H 1.00794 H.PBE-RRKJUS_PSL.1.0.0.UPF ignored
Warning: card H 1.00794 H.PBE-RRKJUS_PSL.1.0.0.UPF ignored

     Current dimensions of program PWSCF are:
     Max number of different atomic species (ntypx) = 10
     Max number of k-points (npk) =  40000
     Max angular momentum in pseudopotentials (lmaxx) =  3

     Current dimensions of program PWSCF are:
     Max number of different atomic species (ntypx) = 10
     Max number of k-points (npk) =  40000
     Max angular momentum in pseudopotentials (lmaxx) =  3

     Current dimensions of program PWSCF are:
     Max number of different atomic species (ntypx) = 10
     Max number of k-points (npk) =  40000
     Max angular momentum in pseudopotentials (lmaxx) =  3

     Current dimensions of program PWSCF are:
     Max number of different atomic species (ntypx) = 10
     Max number of k-points (npk) =  40000
     Max angular momentum in pseudopotentials (lmaxx) =  3

     Current dimensions of program PWSCF are:
     Max number of different atomic species (ntypx) = 10
     Max number of k-points (npk) =  40000
     Max angular momentum in pseudopotentials (lmaxx) =  3

     Current dimensions of program PWSCF are:
     Max number of different atomic species (ntypx) = 10
     Max number of k-points (npk) =  40000
     Max angular momentum in pseudopotentials (lmaxx) =  3

     Current dimensions of program PWSCF are:
     Max number of different atomic species (ntypx) = 10
     Max number of k-points (npk) =  40000
     Max angular momentum in pseudopotentials (lmaxx) =  3

     Current dimensions of program PWSCF are:

     Current dimensions of program PWSCF are:
     Max number of different atomic species (ntypx) = 10
     Max number of k-points (npk) =  40000
     Max angular momentum in pseudopotentials (lmaxx) =  3



     Current dimensions of program PWSCF are:
     Max number of different atomic species (ntypx) = 10
     Max number of k-points (npk) =  40000
     Max angular momentum in pseudopotentials (lmaxx) =  3

     Current dimensions of program PWSCF are:
     Max number of different atomic species (ntypx) = 10
     Max number of k-points (npk) =  40000
     Max number of different atomic species (ntypx) = 10
     Max number of k-points (npk) =  40000
     Max angular momentum in pseudopotentials (lmaxx) =  3
     Current dimensions of program PWSCF are:
     Max number of different atomic species (ntypx) = 10
     Max number of k-points (npk) =  40000
     Max angular momentum in pseudopotentials (lmaxx) =  3

     Current dimensions of program PWSCF are:
     Max number of different atomic species (ntypx) = 10
     Max number of k-points (npk) =  40000
     Max angular momentum in pseudopotentials (lmaxx) =  3
     Current dimensions of program PWSCF are:
     Max number of different atomic species (ntypx) = 10
     Max number of k-points (npk) =  40000
     Max angular momentum in pseudopotentials (lmaxx) =  3
     Max angular momentum in pseudopotentials (lmaxx) =  3

     Current dimensions of program PWSCF are:
     Max number of different atomic species (ntypx) = 10
     Max number of k-points (npk) =  40000
     Max angular momentum in pseudopotentials (lmaxx) =  3

     Current dimensions of program PWSCF are:
     Max number of different atomic species (ntypx) = 10
     Max number of k-points (npk) =  40000
     Max angular momentum in pseudopotentials (lmaxx) =  3
               file Gd.GGA-PBE-paw-v1.0.UPF: wavefunction(s)  Xn Xn Xn Xn Xn Xn renormalized

     Subspace diagonalization in iterative solution of the eigenvalue problem:
     a serial algorithm will be used

 
     G-vector sticks info
     --------------------
     sticks:   dense  smooth     PW     G-vecs:    dense   smooth      PW
     Sum         649     649    211                21097    21097    3861
 


     bravais-lattice index     =            0
     lattice parameter (alat)  =       6.8293  a.u.
     unit-cell volume          =     440.4257 (a.u.)^3
     number of atoms/cell      =            2
     number of atomic types    =            1
     number of electrons       =        36.00
     number of Kohn-Sham states=           22
     kinetic-energy cutoff     =      50.0000  Ry
     charge density cutoff     =     200.0000  Ry
     convergence threshold     =      1.0E-06
     mixing beta               =       0.7000
     number of iterations used =            8  plain     mixing
     Exchange-correlation      = SLA PW PBX PBC ( 1  4  3  4 0 0)
     nstep                     =          150


     celldm(1)=   6.829281  celldm(2)=   0.000000  celldm(3)=   0.000000
     celldm(4)=   0.000000  celldm(5)=   0.000000  celldm(6)=   0.000000

     crystal axes: (cart. coord. in units of alat)
               a(1) = (   1.000000   0.000000   0.000000 )  
               a(2) = (  -0.500014   0.866045   0.000000 )  
               a(3) = (   0.000000   0.000000   1.596641 )  

     reciprocal axes: (cart. coord. in units 2 pi/alat)
               b(1) = (  1.000000  0.577353  0.000000 )  
               b(2) = (  0.000000  1.154674  0.000000 )  
               b(3) = (  0.000000  0.000000  0.626315 )  


     PseudoPot. # 1 for Gd read from file:
     /home/shaharpit/AcHProject/meam_fit/dft/qe_potentials/Gd.GGA-PBE-paw-v1.0.UPF
     MD5 check sum: 3e8e0d208da550914ae52eaf991d13de
     Pseudo is Projector augmented-wave + core cor, Zval = 18.0
     Generated using ATOMPAW code
     Shape of augmentation charge: BESSEL
     Using radial grid of 1110 points,  8 beta functions with: 
                l(1) =   0
                l(2) =   0
                l(3) =   1
                l(4) =   1
                l(5) =   2
                l(6) =   2
                l(7) =   3
                l(8) =   3
     Q(r) pseudized with 0 coefficients 


     atomic species   valence    mass     pseudopotential
        Gd            18.00   157.25000     Gd( 1.00)

      4 Sym. Ops., with inversion, found ( 2 have fractional translation)



   Cartesian axes

     site n.     atom                  positions (alat units)
         1           Gd  tau(   1) = (   0.5000454   0.2886528   1.1974806  )
         2           Gd  tau(   2) = (  -0.0000592   0.5773922   0.3991602  )

     number of k points=    30  gaussian smearing, width (Ry)=  0.0100
                       cart. coord. in units 2pi/alat
        k(    1) = (   0.0000000   0.0000000   0.0000000), wk =   0.0312500
        k(    2) = (   0.0000000   0.0000000   0.1565787), wk =   0.0625000
        k(    3) = (   0.0000000   0.0000000  -0.3131575), wk =   0.0312500
        k(    4) = (   0.0000000   0.2886686   0.0000000), wk =   0.0625000
        k(    5) = (   0.0000000   0.2886686   0.1565787), wk =   0.1250000
        k(    6) = (   0.0000000   0.2886686  -0.3131575), wk =   0.0625000
        k(    7) = (   0.0000000  -0.5773372   0.0000000), wk =   0.0312500
        k(    8) = (   0.0000000  -0.5773372   0.1565787), wk =   0.0625000
        k(    9) = (   0.0000000  -0.5773372  -0.3131575), wk =   0.0312500
        k(   10) = (   0.2500000   0.1443383   0.0000000), wk =   0.0625000
        k(   11) = (   0.2500000   0.1443383   0.1565787), wk =   0.1250000
        k(   12) = (   0.2500000   0.1443383  -0.3131575), wk =   0.0625000
        k(   13) = (   0.2500000   0.4330069   0.0000000), wk =   0.0625000
        k(   14) = (   0.2500000   0.4330069   0.1565787), wk =   0.1250000
        k(   15) = (   0.2500000   0.4330069  -0.3131575), wk =   0.0625000
        k(   16) = (   0.2500000  -0.4329989   0.0000000), wk =   0.0625000
        k(   17) = (   0.2500000  -0.4329989   0.1565787), wk =   0.1250000
        k(   18) = (   0.2500000  -0.4329989  -0.3131575), wk =   0.0625000
        k(   19) = (   0.2500000  -0.1443303   0.0000000), wk =   0.0625000
        k(   20) = (   0.2500000  -0.1443303   0.1565787), wk =   0.1250000
        k(   21) = (   0.2500000  -0.1443303  -0.3131575), wk =   0.0625000
        k(   22) = (  -0.5000000  -0.2886766   0.0000000), wk =   0.0312500
        k(   23) = (  -0.5000000  -0.2886766   0.1565787), wk =   0.0625000
        k(   24) = (  -0.5000000  -0.2886766  -0.3131575), wk =   0.0312500
        k(   25) = (  -0.5000000  -0.0000080   0.0000000), wk =   0.0625000
        k(   26) = (  -0.5000000  -0.0000080   0.1565787), wk =   0.1250000
        k(   27) = (  -0.5000000  -0.0000080  -0.3131575), wk =   0.0625000
        k(   28) = (  -0.5000000  -0.8660138   0.0000000), wk =   0.0312500
        k(   29) = (  -0.5000000  -0.8660138   0.1565787), wk =   0.0625000
        k(   30) = (  -0.5000000  -0.8660138  -0.3131575), wk =   0.0312500

     Dense  grid:    21097 G-vectors     FFT dimensions: (  32,  32,  50)

     Estimated max dynamical RAM per process >      49.22MB
               file Gd.GGA-PBE-paw-v1.0.UPF: wavefunction(s)  Xn Xn Xn Xn Xn Xn renormalized

     Subspace diagonalization in iterative solution of the eigenvalue problem:
     a serial algorithm will be used

 
     G-vector sticks info
     --------------------
     sticks:   dense  smooth     PW     G-vecs:    dense   smooth      PW
     Sum         649     649    211                21097    21097    3861
 


     bravais-lattice index     =            0
     lattice parameter (alat)  =       6.8293  a.u.
     unit-cell volume          =     440.4257 (a.u.)^3
     number of atoms/cell      =            2
     number of atomic types    =            1
     number of electrons       =        36.00
     number of Kohn-Sham states=           22
     kinetic-energy cutoff     =      50.0000  Ry
     charge density cutoff     =     200.0000  Ry
     convergence threshold     =      1.0E-06
     mixing beta               =       0.7000
     number of iterations used =            8  plain     mixing
     Exchange-correlation      = SLA PW PBX PBC ( 1  4  3  4 0 0)
     nstep                     =          150


     celldm(1)=   6.829281  celldm(2)=   0.000000  celldm(3)=   0.000000
     celldm(4)=   0.000000  celldm(5)=   0.000000  celldm(6)=   0.000000

     crystal axes: (cart. coord. in units of alat)
               a(1) = (   1.000000   0.000000   0.000000 )  
               a(2) = (  -0.500014   0.866045   0.000000 )  
               a(3) = (   0.000000   0.000000   1.596641 )  

     reciprocal axes: (cart. coord. in units 2 pi/alat)
               b(1) = (  1.000000  0.577353  0.000000 )  
               b(2) = (  0.000000  1.154674  0.000000 )  
               b(3) = (  0.000000  0.000000  0.626315 )  


     PseudoPot. # 1 for Gd read from file:
     /home/shaharpit/AcHProject/meam_fit/dft/qe_potentials/Gd.GGA-PBE-paw-v1.0.UPF
     MD5 check sum: 3e8e0d208da550914ae52eaf991d13de
     Pseudo is Projector augmented-wave + core cor, Zval = 18.0
     Generated using ATOMPAW code
     Shape of augmentation charge: BESSEL
     Using radial grid of 1110 points,  8 beta functions with: 
                l(1) =   0
                l(2) =   0
                l(3) =   1
                l(4) =   1
                l(5) =   2
                l(6) =   2
                l(7) =   3
                l(8) =   3
     Q(r) pseudized with 0 coefficients 


     atomic species   valence    mass     pseudopotential
        Gd            18.00   157.25000     Gd( 1.00)

      4 Sym. Ops., with inversion, found ( 2 have fractional translation)



   Cartesian axes

     site n.     atom                  positions (alat units)
         1           Gd  tau(   1) = (   0.5000454   0.2886528   1.1974806  )
         2           Gd  tau(   2) = (  -0.0000592   0.5773922   0.3991602  )

     number of k points=    30  gaussian smearing, width (Ry)=  0.0100
                       cart. coord. in units 2pi/alat
        k(    1) = (   0.0000000   0.0000000   0.0000000), wk =   0.0312500
        k(    2) = (   0.0000000   0.0000000   0.1565787), wk =   0.0625000
        k(    3) = (   0.0000000   0.0000000  -0.3131575), wk =   0.0312500
        k(    4) = (   0.0000000   0.2886686   0.0000000), wk =   0.0625000
        k(    5) = (   0.0000000   0.2886686   0.1565787), wk =   0.1250000
        k(    6) = (   0.0000000   0.2886686  -0.3131575), wk =   0.0625000
        k(    7) = (   0.0000000  -0.5773372   0.0000000), wk =   0.0312500
        k(    8) = (   0.0000000  -0.5773372   0.1565787), wk =   0.0625000
        k(    9) = (   0.0000000  -0.5773372  -0.3131575), wk =   0.0312500
        k(   10) = (   0.2500000   0.1443383   0.0000000), wk =   0.0625000
        k(   11) = (   0.2500000   0.1443383   0.1565787), wk =   0.1250000
        k(   12) = (   0.2500000   0.1443383  -0.3131575), wk =   0.0625000
        k(   13) = (   0.2500000   0.4330069   0.0000000), wk =   0.0625000
        k(   14) = (   0.2500000   0.4330069   0.1565787), wk =   0.1250000
        k(   15) = (   0.2500000   0.4330069  -0.3131575), wk =   0.0625000
        k(   16) = (   0.2500000  -0.4329989   0.0000000), wk =   0.0625000
        k(   17) = (   0.2500000  -0.4329989   0.1565787), wk =   0.1250000
        k(   18) = (   0.2500000  -0.4329989  -0.3131575), wk =   0.0625000
        k(   19) = (   0.2500000  -0.1443303   0.0000000), wk =   0.0625000
        k(   20) = (   0.2500000  -0.1443303   0.1565787), wk =   0.1250000
        k(   21) = (   0.2500000  -0.1443303  -0.3131575), wk =   0.0625000
        k(   22) = (  -0.5000000  -0.2886766   0.0000000), wk =   0.0312500
        k(   23) = (  -0.5000000  -0.2886766   0.1565787), wk =   0.0625000
        k(   24) = (  -0.5000000  -0.2886766  -0.3131575), wk =   0.0312500
        k(   25) = (  -0.5000000  -0.0000080   0.0000000), wk =   0.0625000
        k(   26) = (  -0.5000000  -0.0000080   0.1565787), wk =   0.1250000
        k(   27) = (  -0.5000000  -0.0000080  -0.3131575), wk =   0.0625000
        k(   28) = (  -0.5000000  -0.8660138   0.0000000), wk =   0.0312500
        k(   29) = (  -0.5000000  -0.8660138   0.1565787), wk =   0.0625000
        k(   30) = (  -0.5000000  -0.8660138  -0.3131575), wk =   0.0312500

     Dense  grid:    21097 G-vectors     FFT dimensions: (  32,  32,  50)

     Estimated max dynamical RAM per process >      49.22MB
               file Gd.GGA-PBE-paw-v1.0.UPF: wavefunction(s)  Xn Xn Xn Xn Xn Xn renormalized

     Subspace diagonalization in iterative solution of the eigenvalue problem:
     a serial algorithm will be used

 
     G-vector sticks info
     --------------------
     sticks:   dense  smooth     PW     G-vecs:    dense   smooth      PW
     Sum         649     649    211                21097    21097    3861
 


     bravais-lattice index     =            0
     lattice parameter (alat)  =       6.8293  a.u.
     unit-cell volume          =     440.4257 (a.u.)^3
     number of atoms/cell      =            2
     number of atomic types    =            1
     number of electrons       =        36.00
     number of Kohn-Sham states=           22
     kinetic-energy cutoff     =      50.0000  Ry
     charge density cutoff     =     200.0000  Ry
     convergence threshold     =      1.0E-06
     mixing beta               =       0.7000
     number of iterations used =            8  plain     mixing
     Exchange-correlation      = SLA PW PBX PBC ( 1  4  3  4 0 0)
     nstep                     =          150


     celldm(1)=   6.829281  celldm(2)=   0.000000  celldm(3)=   0.000000
     celldm(4)=   0.000000  celldm(5)=   0.000000  celldm(6)=   0.000000

     crystal axes: (cart. coord. in units of alat)
               a(1) = (   1.000000   0.000000   0.000000 )  
               a(2) = (  -0.500014   0.866045   0.000000 )  
               a(3) = (   0.000000   0.000000   1.596641 )  

     reciprocal axes: (cart. coord. in units 2 pi/alat)
               b(1) = (  1.000000  0.577353  0.000000 )  
               b(2) = (  0.000000  1.154674  0.000000 )  
               b(3) = (  0.000000  0.000000  0.626315 )  


     PseudoPot. # 1 for Gd read from file:
     /home/shaharpit/AcHProject/meam_fit/dft/qe_potentials/Gd.GGA-PBE-paw-v1.0.UPF
     MD5 check sum: 3e8e0d208da550914ae52eaf991d13de
     Pseudo is Projector augmented-wave + core cor, Zval = 18.0
     Generated using ATOMPAW code
     Shape of augmentation charge: BESSEL
     Using radial grid of 1110 points,  8 beta functions with: 
                l(1) =   0
                l(2) =   0
                l(3) =   1
                l(4) =   1
                l(5) =   2
                l(6) =   2
                l(7) =   3
                l(8) =   3
     Q(r) pseudized with 0 coefficients 


     atomic species   valence    mass     pseudopotential
        Gd            18.00   157.25000     Gd( 1.00)

      4 Sym. Ops., with inversion, found ( 2 have fractional translation)



   Cartesian axes

     site n.     atom                  positions (alat units)
         1           Gd  tau(   1) = (   0.5000454   0.2886528   1.1974806  )
         2           Gd  tau(   2) = (  -0.0000592   0.5773922   0.3991602  )

     number of k points=    30  gaussian smearing, width (Ry)=  0.0100
                       cart. coord. in units 2pi/alat
        k(    1) = (   0.0000000   0.0000000   0.0000000), wk =   0.0312500
        k(    2) = (   0.0000000   0.0000000   0.1565787), wk =   0.0625000
        k(    3) = (   0.0000000   0.0000000  -0.3131575), wk =   0.0312500
        k(    4) = (   0.0000000   0.2886686   0.0000000), wk =   0.0625000
        k(    5) = (   0.0000000   0.2886686   0.1565787), wk =   0.1250000
        k(    6) = (   0.0000000   0.2886686  -0.3131575), wk =   0.0625000
        k(    7) = (   0.0000000  -0.5773372   0.0000000), wk =   0.0312500
        k(    8) = (   0.0000000  -0.5773372   0.1565787), wk =   0.0625000
        k(    9) = (   0.0000000  -0.5773372  -0.3131575), wk =   0.0312500
        k(   10) = (   0.2500000   0.1443383   0.0000000), wk =   0.0625000
        k(   11) = (   0.2500000   0.1443383   0.1565787), wk =   0.1250000
        k(   12) = (   0.2500000   0.1443383  -0.3131575), wk =   0.0625000
        k(   13) = (   0.2500000   0.4330069   0.0000000), wk =   0.0625000
        k(   14) = (   0.2500000   0.4330069   0.1565787), wk =   0.1250000
        k(   15) = (   0.2500000   0.4330069  -0.3131575), wk =   0.0625000
        k(   16) = (   0.2500000  -0.4329989   0.0000000), wk =   0.0625000
        k(   17) = (   0.2500000  -0.4329989   0.1565787), wk =   0.1250000
        k(   18) = (   0.2500000  -0.4329989  -0.3131575), wk =   0.0625000
        k(   19) = (   0.2500000  -0.1443303   0.0000000), wk =   0.0625000
        k(   20) = (   0.2500000  -0.1443303   0.1565787), wk =   0.1250000
        k(   21) = (   0.2500000  -0.1443303  -0.3131575), wk =   0.0625000
        k(   22) = (  -0.5000000  -0.2886766   0.0000000), wk =   0.0312500
        k(   23) = (  -0.5000000  -0.2886766   0.1565787), wk =   0.0625000
        k(   24) = (  -0.5000000  -0.2886766  -0.3131575), wk =   0.0312500
        k(   25) = (  -0.5000000  -0.0000080   0.0000000), wk =   0.0625000
        k(   26) = (  -0.5000000  -0.0000080   0.1565787), wk =   0.1250000
        k(   27) = (  -0.5000000  -0.0000080  -0.3131575), wk =   0.0625000
        k(   28) = (  -0.5000000  -0.8660138   0.0000000), wk =   0.0312500
        k(   29) = (  -0.5000000  -0.8660138   0.1565787), wk =   0.0625000
        k(   30) = (  -0.5000000  -0.8660138  -0.3131575), wk =   0.0312500

     Dense  grid:    21097 G-vectors     FFT dimensions: (  32,  32,  50)

     Estimated max dynamical RAM per process >      49.22MB
               file Gd.GGA-PBE-paw-v1.0.UPF: wavefunction(s)  Xn Xn Xn Xn Xn Xn renormalized

     Subspace diagonalization in iterative solution of the eigenvalue problem:
     a serial algorithm will be used

 
     G-vector sticks info
     --------------------
     sticks:   dense  smooth     PW     G-vecs:    dense   smooth      PW
     Sum         649     649    211                21097    21097    3861
 


     bravais-lattice index     =            0
     lattice parameter (alat)  =       6.8293  a.u.
     unit-cell volume          =     440.4257 (a.u.)^3
     number of atoms/cell      =            2
     number of atomic types    =            1
     number of electrons       =        36.00
     number of Kohn-Sham states=           22
     kinetic-energy cutoff     =      50.0000  Ry
     charge density cutoff     =     200.0000  Ry
     convergence threshold     =      1.0E-06
     mixing beta               =       0.7000
     number of iterations used =            8  plain     mixing
     Exchange-correlation      = SLA PW PBX PBC ( 1  4  3  4 0 0)
     nstep                     =          150


     celldm(1)=   6.829281  celldm(2)=   0.000000  celldm(3)=   0.000000
     celldm(4)=   0.000000  celldm(5)=   0.000000  celldm(6)=   0.000000

     crystal axes: (cart. coord. in units of alat)
               a(1) = (   1.000000   0.000000   0.000000 )  
               a(2) = (  -0.500014   0.866045   0.000000 )  
               a(3) = (   0.000000   0.000000   1.596641 )  

     reciprocal axes: (cart. coord. in units 2 pi/alat)
               b(1) = (  1.000000  0.577353  0.000000 )  
               b(2) = (  0.000000  1.154674  0.000000 )  
               b(3) = (  0.000000  0.000000  0.626315 )  


     PseudoPot. # 1 for Gd read from file:
     /home/shaharpit/AcHProject/meam_fit/dft/qe_potentials/Gd.GGA-PBE-paw-v1.0.UPF
     MD5 check sum: 3e8e0d208da550914ae52eaf991d13de
     Pseudo is Projector augmented-wave + core cor, Zval = 18.0
     Generated using ATOMPAW code
     Shape of augmentation charge: BESSEL
     Using radial grid of 1110 points,  8 beta functions with: 
                l(1) =   0
                l(2) =   0
                l(3) =   1
                l(4) =   1
                l(5) =   2
                l(6) =   2
                l(7) =   3
                l(8) =   3
     Q(r) pseudized with 0 coefficients 


     atomic species   valence    mass     pseudopotential
        Gd            18.00   157.25000     Gd( 1.00)

      4 Sym. Ops., with inversion, found ( 2 have fractional translation)



   Cartesian axes

     site n.     atom                  positions (alat units)
         1           Gd  tau(   1) = (   0.5000454   0.2886528   1.1974806  )
         2           Gd  tau(   2) = (  -0.0000592   0.5773922   0.3991602  )

     number of k points=    30  gaussian smearing, width (Ry)=  0.0100
                       cart. coord. in units 2pi/alat
        k(    1) = (   0.0000000   0.0000000   0.0000000), wk =   0.0312500
        k(    2) = (   0.0000000   0.0000000   0.1565787), wk =   0.0625000
        k(    3) = (   0.0000000   0.0000000  -0.3131575), wk =   0.0312500
        k(    4) = (   0.0000000   0.2886686   0.0000000), wk =   0.0625000
        k(    5) = (   0.0000000   0.2886686   0.1565787), wk =   0.1250000
        k(    6) = (   0.0000000   0.2886686  -0.3131575), wk =   0.0625000
        k(    7) = (   0.0000000  -0.5773372   0.0000000), wk =   0.0312500
        k(    8) = (   0.0000000  -0.5773372   0.1565787), wk =   0.0625000
        k(    9) = (   0.0000000  -0.5773372  -0.3131575), wk =   0.0312500
        k(   10) = (   0.2500000   0.1443383   0.0000000), wk =   0.0625000
        k(   11) = (   0.2500000   0.1443383   0.1565787), wk =   0.1250000
        k(   12) = (   0.2500000   0.1443383  -0.3131575), wk =   0.0625000
        k(   13) = (   0.2500000   0.4330069   0.0000000), wk =   0.0625000
        k(   14) = (   0.2500000   0.4330069   0.1565787), wk =   0.1250000
        k(   15) = (   0.2500000   0.4330069  -0.3131575), wk =   0.0625000
        k(   16) = (   0.2500000  -0.4329989   0.0000000), wk =   0.0625000
        k(   17) = (   0.2500000  -0.4329989   0.1565787), wk =   0.1250000
        k(   18) = (   0.2500000  -0.4329989  -0.3131575), wk =   0.0625000
        k(   19) = (   0.2500000  -0.1443303   0.0000000), wk =   0.0625000
        k(   20) = (   0.2500000  -0.1443303   0.1565787), wk =   0.1250000
        k(   21) = (   0.2500000  -0.1443303  -0.3131575), wk =   0.0625000
        k(   22) = (  -0.5000000  -0.2886766   0.0000000), wk =   0.0312500
        k(   23) = (  -0.5000000  -0.2886766   0.1565787), wk =   0.0625000
        k(   24) = (  -0.5000000  -0.2886766  -0.3131575), wk =   0.0312500
        k(   25) = (  -0.5000000  -0.0000080   0.0000000), wk =   0.0625000
        k(   26) = (  -0.5000000  -0.0000080   0.1565787), wk =   0.1250000
        k(   27) = (  -0.5000000  -0.0000080  -0.3131575), wk =   0.0625000
        k(   28) = (  -0.5000000  -0.8660138   0.0000000), wk =   0.0312500
        k(   29) = (  -0.5000000  -0.8660138   0.1565787), wk =   0.0625000
        k(   30) = (  -0.5000000  -0.8660138  -0.3131575), wk =   0.0312500

     Dense  grid:    21097 G-vectors     FFT dimensions: (  32,  32,  50)

     Estimated max dynamical RAM per process >      49.22MB
               file Gd.GGA-PBE-paw-v1.0.UPF: wavefunction(s)  Xn Xn Xn Xn Xn Xn renormalized

     Subspace diagonalization in iterative solution of the eigenvalue problem:
     a serial algorithm will be used

 
     G-vector sticks info
     --------------------
     sticks:   dense  smooth     PW     G-vecs:    dense   smooth      PW
     Sum         649     649    211                21097    21097    3861
 


     bravais-lattice index     =            0
     lattice parameter (alat)  =       6.8293  a.u.
     unit-cell volume          =     440.4257 (a.u.)^3
     number of atoms/cell      =            2
     number of atomic types    =            1
     number of electrons       =        36.00
     number of Kohn-Sham states=           22
     kinetic-energy cutoff     =      50.0000  Ry
     charge density cutoff     =     200.0000  Ry
     convergence threshold     =      1.0E-06
     mixing beta               =       0.7000
     number of iterations used =            8  plain     mixing
     Exchange-correlation      = SLA PW PBX PBC ( 1  4  3  4 0 0)
     nstep                     =          150


     celldm(1)=   6.829281  celldm(2)=   0.000000  celldm(3)=   0.000000
     celldm(4)=   0.000000  celldm(5)=   0.000000  celldm(6)=   0.000000

     crystal axes: (cart. coord. in units of alat)
               a(1) = (   1.000000   0.000000   0.000000 )  
               a(2) = (  -0.500014   0.866045   0.000000 )  
               a(3) = (   0.000000   0.000000   1.596641 )  

     reciprocal axes: (cart. coord. in units 2 pi/alat)
               b(1) = (  1.000000  0.577353  0.000000 )  
               b(2) = (  0.000000  1.154674  0.000000 )  
               b(3) = (  0.000000  0.000000  0.626315 )  


     PseudoPot. # 1 for Gd read from file:
     /home/shaharpit/AcHProject/meam_fit/dft/qe_potentials/Gd.GGA-PBE-paw-v1.0.UPF
     MD5 check sum: 3e8e0d208da550914ae52eaf991d13de
     Pseudo is Projector augmented-wave + core cor, Zval = 18.0
     Generated using ATOMPAW code
     Shape of augmentation charge: BESSEL
     Using radial grid of 1110 points,  8 beta functions with: 
                l(1) =   0
                l(2) =   0
                l(3) =   1
                l(4) =   1
                l(5) =   2
                l(6) =   2
                l(7) =   3
                l(8) =   3
     Q(r) pseudized with 0 coefficients 


     atomic species   valence    mass     pseudopotential
        Gd            18.00   157.25000     Gd( 1.00)

      4 Sym. Ops., with inversion, found ( 2 have fractional translation)



   Cartesian axes

     site n.     atom                  positions (alat units)
         1           Gd  tau(   1) = (   0.5000454   0.2886528   1.1974806  )
         2           Gd  tau(   2) = (  -0.0000592   0.5773922   0.3991602  )

     number of k points=    30  gaussian smearing, width (Ry)=  0.0100
                       cart. coord. in units 2pi/alat
        k(    1) = (   0.0000000   0.0000000   0.0000000), wk =   0.0312500
        k(    2) = (   0.0000000   0.0000000   0.1565787), wk =   0.0625000
        k(    3) = (   0.0000000   0.0000000  -0.3131575), wk =   0.0312500
        k(    4) = (   0.0000000   0.2886686   0.0000000), wk =   0.0625000
        k(    5) = (   0.0000000   0.2886686   0.1565787), wk =   0.1250000
        k(    6) = (   0.0000000   0.2886686  -0.3131575), wk =   0.0625000
        k(    7) = (   0.0000000  -0.5773372   0.0000000), wk =   0.0312500
        k(    8) = (   0.0000000  -0.5773372   0.1565787), wk =   0.0625000
        k(    9) = (   0.0000000  -0.5773372  -0.3131575), wk =   0.0312500
        k(   10) = (   0.2500000   0.1443383   0.0000000), wk =   0.0625000
        k(   11) = (   0.2500000   0.1443383   0.1565787), wk =   0.1250000
        k(   12) = (   0.2500000   0.1443383  -0.3131575), wk =   0.0625000
        k(   13) = (   0.2500000   0.4330069   0.0000000), wk =   0.0625000
        k(   14) = (   0.2500000   0.4330069   0.1565787), wk =   0.1250000
        k(   15) = (   0.2500000   0.4330069  -0.3131575), wk =   0.0625000
        k(   16) = (   0.2500000  -0.4329989   0.0000000), wk =   0.0625000
        k(   17) = (   0.2500000  -0.4329989   0.1565787), wk =   0.1250000
        k(   18) = (   0.2500000  -0.4329989  -0.3131575), wk =   0.0625000
        k(   19) = (   0.2500000  -0.1443303   0.0000000), wk =   0.0625000
        k(   20) = (   0.2500000  -0.1443303   0.1565787), wk =   0.1250000
        k(   21) = (   0.2500000  -0.1443303  -0.3131575), wk =   0.0625000
        k(   22) = (  -0.5000000  -0.2886766   0.0000000), wk =   0.0312500
        k(   23) = (  -0.5000000  -0.2886766   0.1565787), wk =   0.0625000
        k(   24) = (  -0.5000000  -0.2886766  -0.3131575), wk =   0.0312500
        k(   25) = (  -0.5000000  -0.0000080   0.0000000), wk =   0.0625000
        k(   26) = (  -0.5000000  -0.0000080   0.1565787), wk =   0.1250000
        k(   27) = (  -0.5000000  -0.0000080  -0.3131575), wk =   0.0625000
        k(   28) = (  -0.5000000  -0.8660138   0.0000000), wk =   0.0312500
        k(   29) = (  -0.5000000  -0.8660138   0.1565787), wk =   0.0625000
        k(   30) = (  -0.5000000  -0.8660138  -0.3131575), wk =   0.0312500

     Dense  grid:    21097 G-vectors     FFT dimensions: (  32,  32,  50)

     Estimated max dynamical RAM per process >      49.22MB
               file Gd.GGA-PBE-paw-v1.0.UPF: wavefunction(s)  Xn Xn Xn Xn Xn Xn renormalized

     Subspace diagonalization in iterative solution of the eigenvalue problem:
     a serial algorithm will be used

 
     G-vector sticks info
     --------------------
     sticks:   dense  smooth     PW     G-vecs:    dense   smooth      PW
     Sum         649     649    211                21097    21097    3861
 


     bravais-lattice index     =            0
     lattice parameter (alat)  =       6.8293  a.u.
     unit-cell volume          =     440.4257 (a.u.)^3
     number of atoms/cell      =            2
     number of atomic types    =            1
     number of electrons       =        36.00
     number of Kohn-Sham states=           22
     kinetic-energy cutoff     =      50.0000  Ry
     charge density cutoff     =     200.0000  Ry
     convergence threshold     =      1.0E-06
     mixing beta               =       0.7000
     number of iterations used =            8  plain     mixing
     Exchange-correlation      = SLA PW PBX PBC ( 1  4  3  4 0 0)
     nstep                     =          150


     celldm(1)=   6.829281  celldm(2)=   0.000000  celldm(3)=   0.000000
     celldm(4)=   0.000000  celldm(5)=   0.000000  celldm(6)=   0.000000

     crystal axes: (cart. coord. in units of alat)
               a(1) = (   1.000000   0.000000   0.000000 )  
               a(2) = (  -0.500014   0.866045   0.000000 )  
               a(3) = (   0.000000   0.000000   1.596641 )  

     reciprocal axes: (cart. coord. in units 2 pi/alat)
               b(1) = (  1.000000  0.577353  0.000000 )  
               b(2) = (  0.000000  1.154674  0.000000 )  
               b(3) = (  0.000000  0.000000  0.626315 )  


     PseudoPot. # 1 for Gd read from file:
     /home/shaharpit/AcHProject/meam_fit/dft/qe_potentials/Gd.GGA-PBE-paw-v1.0.UPF
     MD5 check sum: 3e8e0d208da550914ae52eaf991d13de
     Pseudo is Projector augmented-wave + core cor, Zval = 18.0
     Generated using ATOMPAW code
     Shape of augmentation charge: BESSEL
     Using radial grid of 1110 points,  8 beta functions with: 
                l(1) =   0
                l(2) =   0
                l(3) =   1
                l(4) =   1
                l(5) =   2
                l(6) =   2
                l(7) =   3
                l(8) =   3
     Q(r) pseudized with 0 coefficients 


     atomic species   valence    mass     pseudopotential
        Gd            18.00   157.25000     Gd( 1.00)

      4 Sym. Ops., with inversion, found ( 2 have fractional translation)



   Cartesian axes

     site n.     atom                  positions (alat units)
         1           Gd  tau(   1) = (   0.5000454   0.2886528   1.1974806  )
         2           Gd  tau(   2) = (  -0.0000592   0.5773922   0.3991602  )

     number of k points=    30  gaussian smearing, width (Ry)=  0.0100
                       cart. coord. in units 2pi/alat
        k(    1) = (   0.0000000   0.0000000   0.0000000), wk =   0.0312500
        k(    2) = (   0.0000000   0.0000000   0.1565787), wk =   0.0625000
        k(    3) = (   0.0000000   0.0000000  -0.3131575), wk =   0.0312500
        k(    4) = (   0.0000000   0.2886686   0.0000000), wk =   0.0625000
        k(    5) = (   0.0000000   0.2886686   0.1565787), wk =   0.1250000
        k(    6) = (   0.0000000   0.2886686  -0.3131575), wk =   0.0625000
        k(    7) = (   0.0000000  -0.5773372   0.0000000), wk =   0.0312500
        k(    8) = (   0.0000000  -0.5773372   0.1565787), wk =   0.0625000
        k(    9) = (   0.0000000  -0.5773372  -0.3131575), wk =   0.0312500
        k(   10) = (   0.2500000   0.1443383   0.0000000), wk =   0.0625000
        k(   11) = (   0.2500000   0.1443383   0.1565787), wk =   0.1250000
        k(   12) = (   0.2500000   0.1443383  -0.3131575), wk =   0.0625000
        k(   13) = (   0.2500000   0.4330069   0.0000000), wk =   0.0625000
        k(   14) = (   0.2500000   0.4330069   0.1565787), wk =   0.1250000
               file Gd.GGA-PBE-paw-v1.0.UPF: wavefunction(s)  Xn Xn Xn Xn Xn Xn renormalized
        k(   15) = (   0.2500000   0.4330069  -0.3131575), wk =   0.0625000
        k(   16) = (   0.2500000  -0.4329989   0.0000000), wk =   0.0625000
        k(   17) = (   0.2500000  -0.4329989   0.1565787), wk =   0.1250000
        k(   18) = (   0.2500000  -0.4329989  -0.3131575), wk =   0.0625000
        k(   19) = (   0.2500000  -0.1443303   0.0000000), wk =   0.0625000
        k(   20) = (   0.2500000  -0.1443303   0.1565787), wk =   0.1250000
        k(   21) = (   0.2500000  -0.1443303  -0.3131575), wk =   0.0625000
        k(   22) = (  -0.5000000  -0.2886766   0.0000000), wk =   0.0312500
        k(   23) = (  -0.5000000  -0.2886766   0.1565787), wk =   0.0625000
        k(   24) = (  -0.5000000  -0.2886766  -0.3131575), wk =   0.0312500
        k(   25) = (  -0.5000000  -0.0000080   0.0000000), wk =   0.0625000
        k(   26) = (  -0.5000000  -0.0000080   0.1565787), wk =   0.1250000
        k(   27) = (  -0.5000000  -0.0000080  -0.3131575), wk =   0.0625000
        k(   28) = (  -0.5000000  -0.8660138   0.0000000), wk =   0.0312500
        k(   29) = (  -0.5000000  -0.8660138   0.1565787), wk =   0.0625000
        k(   30) = (  -0.5000000  -0.8660138  -0.3131575), wk =   0.0312500

     Dense  grid:    21097 G-vectors     FFT dimensions: (  32,  32,  50)

     Subspace diagonalization in iterative solution of the eigenvalue problem:

     Estimated max dynamical RAM per process >      49.22MB
     a serial algorithm will be used

 
     G-vector sticks info
     --------------------
     sticks:   dense  smooth     PW     G-vecs:    dense   smooth      PW
     Sum         649     649    211                21097    21097    3861
 


     bravais-lattice index     =            0
     lattice parameter (alat)  =       6.8293  a.u.
     unit-cell volume          =     440.4257 (a.u.)^3
     number of atoms/cell      =            2
     number of atomic types    =            1
     number of electrons       =        36.00
     number of Kohn-Sham states=           22
     kinetic-energy cutoff     =      50.0000  Ry
     charge density cutoff     =     200.0000  Ry
     convergence threshold     =      1.0E-06
     mixing beta               =       0.7000
     number of iterations used =            8  plain     mixing
     Exchange-correlation      = SLA PW PBX PBC ( 1  4  3  4 0 0)
     nstep                     =          150


     celldm(1)=   6.829281  celldm(2)=   0.000000  celldm(3)=   0.000000
     celldm(4)=   0.000000  celldm(5)=   0.000000  celldm(6)=   0.000000

     crystal axes: (cart. coord. in units of alat)
               a(1) = (   1.000000   0.000000   0.000000 )  
               a(2) = (  -0.500014   0.866045   0.000000 )  
               a(3) = (   0.000000   0.000000   1.596641 )  

     reciprocal axes: (cart. coord. in units 2 pi/alat)
               b(1) = (  1.000000  0.577353  0.000000 )  
               b(2) = (  0.000000  1.154674  0.000000 )  
               b(3) = (  0.000000  0.000000  0.626315 )  


     PseudoPot. # 1 for Gd read from file:
     /home/shaharpit/AcHProject/meam_fit/dft/qe_potentials/Gd.GGA-PBE-paw-v1.0.UPF
     MD5 check sum: 3e8e0d208da550914ae52eaf991d13de
     Pseudo is Projector augmented-wave + core cor, Zval = 18.0
     Generated using ATOMPAW code
     Shape of augmentation charge: BESSEL
     Using radial grid of 1110 points,  8 beta functions with: 
                l(1) =   0
                l(2) =   0
                l(3) =   1
                l(4) =   1
                l(5) =   2
                l(6) =   2
                l(7) =   3
                l(8) =   3
     Q(r) pseudized with 0 coefficients 


     atomic species   valence    mass     pseudopotential
        Gd            18.00   157.25000     Gd( 1.00)

      4 Sym. Ops., with inversion, found ( 2 have fractional translation)



   Cartesian axes

     site n.     atom                  positions (alat units)
         1           Gd  tau(   1) = (   0.5000454   0.2886528   1.1974806  )
         2           Gd  tau(   2) = (  -0.0000592   0.5773922   0.3991602  )

     number of k points=    30  gaussian smearing, width (Ry)=  0.0100
                       cart. coord. in units 2pi/alat
        k(    1) = (   0.0000000   0.0000000   0.0000000), wk =   0.0312500
        k(    2) = (   0.0000000   0.0000000   0.1565787), wk =   0.0625000
        k(    3) = (   0.0000000   0.0000000  -0.3131575), wk =   0.0312500
        k(    4) = (   0.0000000   0.2886686   0.0000000), wk =   0.0625000
        k(    5) = (   0.0000000   0.2886686   0.1565787), wk =   0.1250000
        k(    6) = (   0.0000000   0.2886686  -0.3131575), wk =   0.0625000
        k(    7) = (   0.0000000  -0.5773372   0.0000000), wk =   0.0312500
        k(    8) = (   0.0000000  -0.5773372   0.1565787), wk =   0.0625000
        k(    9) = (   0.0000000  -0.5773372  -0.3131575), wk =   0.0312500
        k(   10) = (   0.2500000   0.1443383   0.0000000), wk =   0.0625000
        k(   11) = (   0.2500000   0.1443383   0.1565787), wk =   0.1250000
        k(   12) = (   0.2500000   0.1443383  -0.3131575), wk =   0.0625000
        k(   13) = (   0.2500000   0.4330069   0.0000000), wk =   0.0625000
        k(   14) = (   0.2500000   0.4330069   0.1565787), wk =   0.1250000
        k(   15) = (   0.2500000   0.4330069  -0.3131575), wk =   0.0625000
        k(   16) = (   0.2500000  -0.4329989   0.0000000), wk =   0.0625000
        k(   17) = (   0.2500000  -0.4329989   0.1565787), wk =   0.1250000
        k(   18) = (   0.2500000  -0.4329989  -0.3131575), wk =   0.0625000
        k(   19) = (   0.2500000  -0.1443303   0.0000000), wk =   0.0625000
        k(   20) = (   0.2500000  -0.1443303   0.1565787), wk =   0.1250000
        k(   21) = (   0.2500000  -0.1443303  -0.3131575), wk =   0.0625000
        k(   22) = (  -0.5000000  -0.2886766   0.0000000), wk =   0.0312500
        k(   23) = (  -0.5000000  -0.2886766   0.1565787), wk =   0.0625000
        k(   24) = (  -0.5000000  -0.2886766  -0.3131575), wk =   0.0312500
        k(   25) = (  -0.5000000  -0.0000080   0.0000000), wk =   0.0625000
        k(   26) = (  -0.5000000  -0.0000080   0.1565787), wk =   0.1250000
        k(   27) = (  -0.5000000  -0.0000080  -0.3131575), wk =   0.0625000
        k(   28) = (  -0.5000000  -0.8660138   0.0000000), wk =   0.0312500
        k(   29) = (  -0.5000000  -0.8660138   0.1565787), wk =   0.0625000
        k(   30) = (  -0.5000000  -0.8660138  -0.3131575), wk =   0.0312500

     Dense  grid:    21097 G-vectors     FFT dimensions: (  32,  32,  50)

     Estimated max dynamical RAM per process >      49.22MB
               file Gd.GGA-PBE-paw-v1.0.UPF: wavefunction(s)  Xn Xn Xn Xn Xn Xn renormalized
               file Gd.GGA-PBE-paw-v1.0.UPF: wavefunction(s)  Xn Xn Xn Xn Xn Xn renormalized

     Subspace diagonalization in iterative solution of the eigenvalue problem:
     a serial algorithm will be used


     Subspace diagonalization in iterative solution of the eigenvalue problem:
     a serial algorithm will be used

 
     G-vector sticks info
     --------------------
     sticks:   dense  smooth     PW     G-vecs:    dense   smooth      PW
     Sum         649     649    211                21097    21097    3861
 


     bravais-lattice index     =            0
     lattice parameter (alat)  =       6.8293  a.u.
     unit-cell volume          =     440.4257 (a.u.)^3
     number of atoms/cell      =            2
     number of atomic types    =            1
     number of electrons       =        36.00
     number of Kohn-Sham states=           22
     kinetic-energy cutoff     =      50.0000  Ry
     charge density cutoff     =     200.0000  Ry
     convergence threshold     =      1.0E-06
     mixing beta               =       0.7000
     number of iterations used =            8  plain     mixing
     Exchange-correlation      = SLA PW PBX PBC ( 1  4  3  4 0 0)
     nstep                     =          150


     celldm(1)=   6.829281  celldm(2)=   0.000000  celldm(3)=   0.000000
     celldm(4)=   0.000000  celldm(5)=   0.000000  celldm(6)=   0.000000

     crystal axes: (cart. coord. in units of alat)
               a(1) = (   1.000000   0.000000   0.000000 )  
               a(2) = (  -0.500014   0.866045   0.000000 )  
               a(3) = (   0.000000   0.000000   1.596641 )  

     reciprocal axes: (cart. coord. in units 2 pi/alat)
               b(1) = (  1.000000  0.577353  0.000000 )  
               b(2) = (  0.000000  1.154674  0.000000 )  
               b(3) = (  0.000000  0.000000  0.626315 )  


     PseudoPot. # 1 for Gd read from file:
     /home/shaharpit/AcHProject/meam_fit/dft/qe_potentials/Gd.GGA-PBE-paw-v1.0.UPF
     MD5 check sum: 3e8e0d208da550914ae52eaf991d13de
     Pseudo is Projector augmented-wave + core cor, Zval = 18.0
     Generated using ATOMPAW code
     Shape of augmentation charge: BESSEL
     Using radial grid of 1110 points,  8 beta functions with: 
                l(1) =   0
                l(2) =   0
                l(3) =   1
                l(4) =   1
                l(5) =   2
                l(6) =   2
                l(7) =   3
                l(8) =   3
     Q(r) pseudized with 0 coefficients 


     atomic species   valence    mass     pseudopotential
        Gd            18.00   157.25000     Gd( 1.00)

      4 Sym. Ops., with inversion, found ( 2 have fractional translation)



   Cartesian axes

     site n.     atom                  positions (alat units)
         1           Gd  tau(   1) = (   0.5000454   0.2886528   1.1974806  )
         2           Gd  tau(   2) = (  -0.0000592   0.5773922   0.3991602  )

     number of k points=    30  gaussian smearing, width (Ry)=  0.0100
                       cart. coord. in units 2pi/alat
        k(    1) = (   0.0000000   0.0000000   0.0000000), wk =   0.0312500
        k(    2) = (   0.0000000   0.0000000   0.1565787), wk =   0.0625000
        k(    3) = (   0.0000000   0.0000000  -0.3131575), wk =   0.0312500
        k(    4) = (   0.0000000   0.2886686   0.0000000), wk =   0.0625000
        k(    5) = (   0.0000000   0.2886686   0.1565787), wk =   0.1250000
        k(    6) = (   0.0000000   0.2886686  -0.3131575), wk =   0.0625000
        k(    7) = (   0.0000000  -0.5773372   0.0000000), wk =   0.0312500
        k(    8) = (   0.0000000  -0.5773372   0.1565787), wk =   0.0625000
        k(    9) = (   0.0000000  -0.5773372  -0.3131575), wk =   0.0312500
        k(   10) = (   0.2500000   0.1443383   0.0000000), wk =   0.0625000
        k(   11) = (   0.2500000   0.1443383   0.1565787), wk =   0.1250000
        k(   12) = (   0.2500000   0.1443383  -0.3131575), wk =   0.0625000
        k(   13) = (   0.2500000   0.4330069   0.0000000), wk =   0.0625000
        k(   14) = (   0.2500000   0.4330069   0.1565787), wk =   0.1250000
        k(   15) = (   0.2500000   0.4330069  -0.3131575), wk =   0.0625000
        k(   16) = (   0.2500000  -0.4329989   0.0000000), wk =   0.0625000
        k(   17) = (   0.2500000  -0.4329989   0.1565787), wk =   0.1250000
        k(   18) = (   0.2500000  -0.4329989  -0.3131575), wk =   0.0625000
        k(   19) = (   0.2500000  -0.1443303   0.0000000), wk =   0.0625000
        k(   20) = (   0.2500000  -0.1443303   0.1565787), wk =   0.1250000
        k(   21) = (   0.2500000  -0.1443303  -0.3131575), wk =   0.0625000
        k(   22) = (  -0.5000000  -0.2886766   0.0000000), wk =   0.0312500
        k(   23) = (  -0.5000000  -0.2886766   0.1565787), wk =   0.0625000
        k(   24) = (  -0.5000000  -0.2886766  -0.3131575), wk =   0.0312500
        k(   25) = (  -0.5000000  -0.0000080   0.0000000), wk =   0.0625000
        k(   26) = (  -0.5000000  -0.0000080   0.1565787), wk =   0.1250000
        k(   27) = (  -0.5000000  -0.0000080  -0.3131575), wk =   0.0625000
        k(   28) = (  -0.5000000  -0.8660138   0.0000000), wk =   0.0312500
        k(   29) = (  -0.5000000  -0.8660138   0.1565787), wk =   0.0625000
        k(   30) = (  -0.5000000  -0.8660138  -0.3131575), wk =   0.0312500

     Dense  grid:    21097 G-vectors     FFT dimensions: (  32,  32,  50)

     Estimated max dynamical RAM per process >      49.22MB
               file Gd.GGA-PBE-paw-v1.0.UPF: wavefunction(s)  Xn Xn Xn Xn Xn Xn renormalized

     Subspace diagonalization in iterative solution of the eigenvalue problem:
     a serial algorithm will be used

 
     G-vector sticks info
     --------------------
     sticks:   dense  smooth     PW     G-vecs:    dense   smooth      PW
     Sum         649     649    211                21097    21097    3861
 
 
     G-vector sticks info
     --------------------
     sticks:   dense  smooth     PW     G-vecs:    dense   smooth      PW
     Sum         649     649    211                21097    21097    3861
 


     bravais-lattice index     =            0
     lattice parameter (alat)  =       6.8293  a.u.
     unit-cell volume          =     440.4257 (a.u.)^3


     bravais-lattice index     =            0
     lattice parameter (alat)  =       6.8293  a.u.
     unit-cell volume          =     440.4257 (a.u.)^3
     number of atoms/cell      =            2
     number of atomic types    =            1
     number of electrons       =        36.00
     number of Kohn-Sham states=           22
     kinetic-energy cutoff     =      50.0000  Ry
     charge density cutoff     =     200.0000  Ry
     number of atoms/cell      =            2
     number of atomic types    =            1
     number of electrons       =        36.00
     number of Kohn-Sham states=           22
     kinetic-energy cutoff     =      50.0000  Ry
     charge density cutoff     =     200.0000  Ry
     convergence threshold     =      1.0E-06
     mixing beta               =       0.7000
     number of iterations used =            8  plain     mixing
     Exchange-correlation      = SLA PW PBX PBC ( 1  4  3  4 0 0)
     nstep                     =          150


     convergence threshold     =      1.0E-06
     mixing beta               =       0.7000
     number of iterations used =            8  plain     mixing
     Exchange-correlation      = SLA PW PBX PBC ( 1  4  3  4 0 0)
     nstep                     =          150

     celldm(1)=   6.829281  celldm(2)=   0.000000  celldm(3)=   0.000000
     celldm(4)=   0.000000  celldm(5)=   0.000000  celldm(6)=   0.000000

     crystal axes: (cart. coord. in units of alat)
               a(1) = (   1.000000   0.000000   0.000000 )  
               a(2) = (  -0.500014   0.866045   0.000000 )  

     celldm(1)=   6.829281  celldm(2)=   0.000000  celldm(3)=   0.000000
     celldm(4)=   0.000000  celldm(5)=   0.000000  celldm(6)=   0.000000

     crystal axes: (cart. coord. in units of alat)
               a(1) = (   1.000000   0.000000   0.000000 )  
               a(2) = (  -0.500014   0.866045   0.000000 )  
               a(3) = (   0.000000   0.000000   1.596641 )  

     reciprocal axes: (cart. coord. in units 2 pi/alat)
               b(1) = (  1.000000  0.577353  0.000000 )  
               b(2) = (  0.000000  1.154674  0.000000 )  
               b(3) = (  0.000000  0.000000  0.626315 )  


     PseudoPot. # 1 for Gd read from file:
               a(3) = (   0.000000   0.000000   1.596641 )  

     reciprocal axes: (cart. coord. in units 2 pi/alat)
               b(1) = (  1.000000  0.577353  0.000000 )  
               b(2) = (  0.000000  1.154674  0.000000 )  
               b(3) = (  0.000000  0.000000  0.626315 )  

     /home/shaharpit/AcHProject/meam_fit/dft/qe_potentials/Gd.GGA-PBE-paw-v1.0.UPF
     MD5 check sum: 3e8e0d208da550914ae52eaf991d13de
     Pseudo is Projector augmented-wave + core cor, Zval = 18.0
     Generated using ATOMPAW code
     Shape of augmentation charge: BESSEL

     PseudoPot. # 1 for Gd read from file:
     /home/shaharpit/AcHProject/meam_fit/dft/qe_potentials/Gd.GGA-PBE-paw-v1.0.UPF
     MD5 check sum: 3e8e0d208da550914ae52eaf991d13de
     Pseudo is Projector augmented-wave + core cor, Zval = 18.0
     Generated using ATOMPAW code
     Shape of augmentation charge: BESSEL
     Using radial grid of 1110 points,  8 beta functions with: 
                l(1) =   0
                l(2) =   0
                l(3) =   1
                l(4) =   1
                l(5) =   2
     Using radial grid of 1110 points,  8 beta functions with: 
                l(1) =   0
                l(2) =   0
                l(3) =   1
                l(4) =   1
                l(6) =   2
                l(7) =   3
                l(8) =   3
     Q(r) pseudized with 0 coefficients 


     atomic species   valence    mass     pseudopotential
        Gd            18.00   157.25000     Gd( 1.00)

                l(5) =   2
                l(6) =   2
                l(7) =   3
                l(8) =   3
     Q(r) pseudized with 0 coefficients 


      4 Sym. Ops., with inversion, found ( 2 have fractional translation)


     atomic species   valence    mass     pseudopotential
        Gd            18.00   157.25000     Gd( 1.00)


   Cartesian axes

     site n.     atom                  positions (alat units)
         1           Gd  tau(   1) = (   0.5000454   0.2886528   1.1974806  )
         2           Gd  tau(   2) = (  -0.0000592   0.5773922   0.3991602  )

     number of k points=    30  gaussian smearing, width (Ry)=  0.0100
                       cart. coord. in units 2pi/alat
      4 Sym. Ops., with inversion, found ( 2 have fractional translation)



   Cartesian axes

     site n.     atom                  positions (alat units)
         1           Gd  tau(   1) = (   0.5000454   0.2886528   1.1974806  )
         2           Gd  tau(   2) = (  -0.0000592   0.5773922   0.3991602  )
        k(    1) = (   0.0000000   0.0000000   0.0000000), wk =   0.0312500
        k(    2) = (   0.0000000   0.0000000   0.1565787), wk =   0.0625000
        k(    3) = (   0.0000000   0.0000000  -0.3131575), wk =   0.0312500
        k(    4) = (   0.0000000   0.2886686   0.0000000), wk =   0.0625000

     number of k points=    30  gaussian smearing, width (Ry)=  0.0100
                       cart. coord. in units 2pi/alat
        k(    1) = (   0.0000000   0.0000000   0.0000000), wk =   0.0312500
        k(    2) = (   0.0000000   0.0000000   0.1565787), wk =   0.0625000
        k(    5) = (   0.0000000   0.2886686   0.1565787), wk =   0.1250000
        k(    6) = (   0.0000000   0.2886686  -0.3131575), wk =   0.0625000
        k(    7) = (   0.0000000  -0.5773372   0.0000000), wk =   0.0312500
        k(    8) = (   0.0000000  -0.5773372   0.1565787), wk =   0.0625000
        k(    9) = (   0.0000000  -0.5773372  -0.3131575), wk =   0.0312500
        k(   10) = (   0.2500000   0.1443383   0.0000000), wk =   0.0625000
        k(    3) = (   0.0000000   0.0000000  -0.3131575), wk =   0.0312500
        k(    4) = (   0.0000000   0.2886686   0.0000000), wk =   0.0625000
        k(    5) = (   0.0000000   0.2886686   0.1565787), wk =   0.1250000
        k(    6) = (   0.0000000   0.2886686  -0.3131575), wk =   0.0625000
        k(   11) = (   0.2500000   0.1443383   0.1565787), wk =   0.1250000
        k(   12) = (   0.2500000   0.1443383  -0.3131575), wk =   0.0625000
        k(   13) = (   0.2500000   0.4330069   0.0000000), wk =   0.0625000
        k(   14) = (   0.2500000   0.4330069   0.1565787), wk =   0.1250000
        k(    7) = (   0.0000000  -0.5773372   0.0000000), wk =   0.0312500
        k(    8) = (   0.0000000  -0.5773372   0.1565787), wk =   0.0625000
        k(    9) = (   0.0000000  -0.5773372  -0.3131575), wk =   0.0312500
        k(   10) = (   0.2500000   0.1443383   0.0000000), wk =   0.0625000
        k(   11) = (   0.2500000   0.1443383   0.1565787), wk =   0.1250000
        k(   12) = (   0.2500000   0.1443383  -0.3131575), wk =   0.0625000
        k(   15) = (   0.2500000   0.4330069  -0.3131575), wk =   0.0625000
        k(   16) = (   0.2500000  -0.4329989   0.0000000), wk =   0.0625000
        k(   17) = (   0.2500000  -0.4329989   0.1565787), wk =   0.1250000
        k(   18) = (   0.2500000  -0.4329989  -0.3131575), wk =   0.0625000
        k(   19) = (   0.2500000  -0.1443303   0.0000000), wk =   0.0625000
        k(   13) = (   0.2500000   0.4330069   0.0000000), wk =   0.0625000
        k(   14) = (   0.2500000   0.4330069   0.1565787), wk =   0.1250000
        k(   15) = (   0.2500000   0.4330069  -0.3131575), wk =   0.0625000
        k(   16) = (   0.2500000  -0.4329989   0.0000000), wk =   0.0625000
        k(   17) = (   0.2500000  -0.4329989   0.1565787), wk =   0.1250000
        k(   18) = (   0.2500000  -0.4329989  -0.3131575), wk =   0.0625000
        k(   20) = (   0.2500000  -0.1443303   0.1565787), wk =   0.1250000
        k(   21) = (   0.2500000  -0.1443303  -0.3131575), wk =   0.0625000
        k(   22) = (  -0.5000000  -0.2886766   0.0000000), wk =   0.0312500
        k(   23) = (  -0.5000000  -0.2886766   0.1565787), wk =   0.0625000
        k(   19) = (   0.2500000  -0.1443303   0.0000000), wk =   0.0625000
        k(   20) = (   0.2500000  -0.1443303   0.1565787), wk =   0.1250000
        k(   21) = (   0.2500000  -0.1443303  -0.3131575), wk =   0.0625000
        k(   22) = (  -0.5000000  -0.2886766   0.0000000), wk =   0.0312500
        k(   23) = (  -0.5000000  -0.2886766   0.1565787), wk =   0.0625000
        k(   24) = (  -0.5000000  -0.2886766  -0.3131575), wk =   0.0312500
        k(   24) = (  -0.5000000  -0.2886766  -0.3131575), wk =   0.0312500
        k(   25) = (  -0.5000000  -0.0000080   0.0000000), wk =   0.0625000
        k(   26) = (  -0.5000000  -0.0000080   0.1565787), wk =   0.1250000
        k(   27) = (  -0.5000000  -0.0000080  -0.3131575), wk =   0.0625000
        k(   28) = (  -0.5000000  -0.8660138   0.0000000), wk =   0.0312500
        k(   29) = (  -0.5000000  -0.8660138   0.1565787), wk =   0.0625000
        k(   30) = (  -0.5000000  -0.8660138  -0.3131575), wk =   0.0312500
        k(   25) = (  -0.5000000  -0.0000080   0.0000000), wk =   0.0625000
        k(   26) = (  -0.5000000  -0.0000080   0.1565787), wk =   0.1250000
        k(   27) = (  -0.5000000  -0.0000080  -0.3131575), wk =   0.0625000
        k(   28) = (  -0.5000000  -0.8660138   0.0000000), wk =   0.0312500
        k(   29) = (  -0.5000000  -0.8660138   0.1565787), wk =   0.0625000
        k(   30) = (  -0.5000000  -0.8660138  -0.3131575), wk =   0.0312500


     Dense  grid:    21097 G-vectors     FFT dimensions: (  32,  32,  50)

     Estimated max dynamical RAM per process >      49.22MB
     Dense  grid:    21097 G-vectors     FFT dimensions: (  32,  32,  50)

     Estimated max dynamical RAM per process >      49.22MB
               file Gd.GGA-PBE-paw-v1.0.UPF: wavefunction(s)  Xn Xn Xn Xn Xn Xn renormalized

     Subspace diagonalization in iterative solution of the eigenvalue problem:
     a serial algorithm will be used

 
     G-vector sticks info
     --------------------
     sticks:   dense  smooth     PW     G-vecs:    dense   smooth      PW
     Sum         649     649    211                21097    21097    3861
 


     bravais-lattice index     =            0
     lattice parameter (alat)  =       6.8293  a.u.
     unit-cell volume          =     440.4257 (a.u.)^3
     number of atoms/cell      =            2
     number of atomic types    =            1
     number of electrons       =        36.00
     number of Kohn-Sham states=           22
     kinetic-energy cutoff     =      50.0000  Ry
     charge density cutoff     =     200.0000  Ry
     convergence threshold     =      1.0E-06
     mixing beta               =       0.7000
     number of iterations used =            8  plain     mixing
     Exchange-correlation      = SLA PW PBX PBC ( 1  4  3  4 0 0)
     nstep                     =          150


     celldm(1)=   6.829281  celldm(2)=   0.000000  celldm(3)=   0.000000
     celldm(4)=   0.000000  celldm(5)=   0.000000  celldm(6)=   0.000000

     crystal axes: (cart. coord. in units of alat)
               a(1) = (   1.000000   0.000000   0.000000 )  
               a(2) = (  -0.500014   0.866045   0.000000 )  
               a(3) = (   0.000000   0.000000   1.596641 )  

     reciprocal axes: (cart. coord. in units 2 pi/alat)
               b(1) = (  1.000000  0.577353  0.000000 )  
               b(2) = (  0.000000  1.154674  0.000000 )  
               b(3) = (  0.000000  0.000000  0.626315 )  


     PseudoPot. # 1 for Gd read from file:
     /home/shaharpit/AcHProject/meam_fit/dft/qe_potentials/Gd.GGA-PBE-paw-v1.0.UPF
     MD5 check sum: 3e8e0d208da550914ae52eaf991d13de
     Pseudo is Projector augmented-wave + core cor, Zval = 18.0
     Generated using ATOMPAW code
     Shape of augmentation charge: BESSEL
     Using radial grid of 1110 points,  8 beta functions with: 
                l(1) =   0
                l(2) =   0
                l(3) =   1
                l(4) =   1
                l(5) =   2
                l(6) =   2
                l(7) =   3
                l(8) =   3
     Q(r) pseudized with 0 coefficients 


     atomic species   valence    mass     pseudopotential
        Gd            18.00   157.25000     Gd( 1.00)

      4 Sym. Ops., with inversion, found ( 2 have fractional translation)



   Cartesian axes

     site n.     atom                  positions (alat units)
         1           Gd  tau(   1) = (   0.5000454   0.2886528   1.1974806  )
         2           Gd  tau(   2) = (  -0.0000592   0.5773922   0.3991602  )

     number of k points=    30  gaussian smearing, width (Ry)=  0.0100
                       cart. coord. in units 2pi/alat
        k(    1) = (   0.0000000   0.0000000   0.0000000), wk =   0.0312500
        k(    2) = (   0.0000000   0.0000000   0.1565787), wk =   0.0625000
        k(    3) = (   0.0000000   0.0000000  -0.3131575), wk =   0.0312500
        k(    4) = (   0.0000000   0.2886686   0.0000000), wk =   0.0625000
        k(    5) = (   0.0000000   0.2886686   0.1565787), wk =   0.1250000
        k(    6) = (   0.0000000   0.2886686  -0.3131575), wk =   0.0625000
        k(    7) = (   0.0000000  -0.5773372   0.0000000), wk =   0.0312500
        k(    8) = (   0.0000000  -0.5773372   0.1565787), wk =   0.0625000
        k(    9) = (   0.0000000  -0.5773372  -0.3131575), wk =   0.0312500
        k(   10) = (   0.2500000   0.1443383   0.0000000), wk =   0.0625000
        k(   11) = (   0.2500000   0.1443383   0.1565787), wk =   0.1250000
        k(   12) = (   0.2500000   0.1443383  -0.3131575), wk =   0.0625000
        k(   13) = (   0.2500000   0.4330069   0.0000000), wk =   0.0625000
        k(   14) = (   0.2500000   0.4330069   0.1565787), wk =   0.1250000
        k(   15) = (   0.2500000   0.4330069  -0.3131575), wk =   0.0625000
        k(   16) = (   0.2500000  -0.4329989   0.0000000), wk =   0.0625000
        k(   17) = (   0.2500000  -0.4329989   0.1565787), wk =   0.1250000
        k(   18) = (   0.2500000  -0.4329989  -0.3131575), wk =   0.0625000
        k(   19) = (   0.2500000  -0.1443303   0.0000000), wk =   0.0625000
        k(   20) = (   0.2500000  -0.1443303   0.1565787), wk =   0.1250000
        k(   21) = (   0.2500000  -0.1443303  -0.3131575), wk =   0.0625000
        k(   22) = (  -0.5000000  -0.2886766   0.0000000), wk =   0.0312500
        k(   23) = (  -0.5000000  -0.2886766   0.1565787), wk =   0.0625000
        k(   24) = (  -0.5000000  -0.2886766  -0.3131575), wk =   0.0312500
        k(   25) = (  -0.5000000  -0.0000080   0.0000000), wk =   0.0625000
        k(   26) = (  -0.5000000  -0.0000080   0.1565787), wk =   0.1250000
        k(   27) = (  -0.5000000  -0.0000080  -0.3131575), wk =   0.0625000
        k(   28) = (  -0.5000000  -0.8660138   0.0000000), wk =   0.0312500
        k(   29) = (  -0.5000000  -0.8660138   0.1565787), wk =   0.0625000
        k(   30) = (  -0.5000000  -0.8660138  -0.3131575), wk =   0.0312500

     Dense  grid:    21097 G-vectors     FFT dimensions: (  32,  32,  50)

     Estimated max dynamical RAM per process >      49.22MB
               file Gd.GGA-PBE-paw-v1.0.UPF: wavefunction(s)  Xn Xn Xn Xn Xn Xn renormalized

     Subspace diagonalization in iterative solution of the eigenvalue problem:
     a serial algorithm will be used

               file Gd.GGA-PBE-paw-v1.0.UPF: wavefunction(s)  Xn Xn Xn Xn Xn Xn renormalized

     Subspace diagonalization in iterative solution of the eigenvalue problem:
     a serial algorithm will be used

 
     G-vector sticks info
     --------------------
     sticks:   dense  smooth     PW     G-vecs:    dense   smooth      PW
     Sum         649     649    211                21097    21097    3861
 


     bravais-lattice index     =            0
     lattice parameter (alat)  =       6.8293  a.u.
     unit-cell volume          =     440.4257 (a.u.)^3
     number of atoms/cell      =            2
     number of atomic types    =            1
     number of electrons       =        36.00
     number of Kohn-Sham states=           22
     kinetic-energy cutoff     =      50.0000  Ry
     charge density cutoff     =     200.0000  Ry
     convergence threshold     =      1.0E-06
     mixing beta               =       0.7000
     number of iterations used =            8  plain     mixing
     Exchange-correlation      = SLA PW PBX PBC ( 1  4  3  4 0 0)
     nstep                     =          150


     celldm(1)=   6.829281  celldm(2)=   0.000000  celldm(3)=   0.000000
     celldm(4)=   0.000000  celldm(5)=   0.000000  celldm(6)=   0.000000

     crystal axes: (cart. coord. in units of alat)
               a(1) = (   1.000000   0.000000   0.000000 )  
               a(2) = (  -0.500014   0.866045   0.000000 )  
               a(3) = (   0.000000   0.000000   1.596641 )  

     reciprocal axes: (cart. coord. in units 2 pi/alat)
               b(1) = (  1.000000  0.577353  0.000000 )  
               b(2) = (  0.000000  1.154674  0.000000 )  
               b(3) = (  0.000000  0.000000  0.626315 )  


     PseudoPot. # 1 for Gd read from file:
     /home/shaharpit/AcHProject/meam_fit/dft/qe_potentials/Gd.GGA-PBE-paw-v1.0.UPF
     MD5 check sum: 3e8e0d208da550914ae52eaf991d13de
     Pseudo is Projector augmented-wave + core cor, Zval = 18.0
     Generated using ATOMPAW code
     Shape of augmentation charge: BESSEL
     Using radial grid of 1110 points,  8 beta functions with: 
                l(1) =   0
                l(2) =   0
                l(3) =   1
                l(4) =   1
                l(5) =   2
                l(6) =   2
                l(7) =   3
                l(8) =   3
     Q(r) pseudized with 0 coefficients 


     atomic species   valence    mass     pseudopotential
        Gd            18.00   157.25000     Gd( 1.00)

      4 Sym. Ops., with inversion, found ( 2 have fractional translation)



   Cartesian axes

     site n.     atom                  positions (alat units)
         1           Gd  tau(   1) = (   0.5000454   0.2886528   1.1974806  )
         2           Gd  tau(   2) = (  -0.0000592   0.5773922   0.3991602  )

     number of k points=    30  gaussian smearing, width (Ry)=  0.0100
                       cart. coord. in units 2pi/alat
        k(    1) = (   0.0000000   0.0000000   0.0000000), wk =   0.0312500
        k(    2) = (   0.0000000   0.0000000   0.1565787), wk =   0.0625000
        k(    3) = (   0.0000000   0.0000000  -0.3131575), wk =   0.0312500
        k(    4) = (   0.0000000   0.2886686   0.0000000), wk =   0.0625000
        k(    5) = (   0.0000000   0.2886686   0.1565787), wk =   0.1250000
        k(    6) = (   0.0000000   0.2886686  -0.3131575), wk =   0.0625000
        k(    7) = (   0.0000000  -0.5773372   0.0000000), wk =   0.0312500
        k(    8) = (   0.0000000  -0.5773372   0.1565787), wk =   0.0625000
        k(    9) = (   0.0000000  -0.5773372  -0.3131575), wk =   0.0312500
        k(   10) = (   0.2500000   0.1443383   0.0000000), wk =   0.0625000
        k(   11) = (   0.2500000   0.1443383   0.1565787), wk =   0.1250000
        k(   12) = (   0.2500000   0.1443383  -0.3131575), wk =   0.0625000
        k(   13) = (   0.2500000   0.4330069   0.0000000), wk =   0.0625000
        k(   14) = (   0.2500000   0.4330069   0.1565787), wk =   0.1250000
        k(   15) = (   0.2500000   0.4330069  -0.3131575), wk =   0.0625000
        k(   16) = (   0.2500000  -0.4329989   0.0000000), wk =   0.0625000
        k(   17) = (   0.2500000  -0.4329989   0.1565787), wk =   0.1250000
        k(   18) = (   0.2500000  -0.4329989  -0.3131575), wk =   0.0625000
        k(   19) = (   0.2500000  -0.1443303   0.0000000), wk =   0.0625000
        k(   20) = (   0.2500000  -0.1443303   0.1565787), wk =   0.1250000
        k(   21) = (   0.2500000  -0.1443303  -0.3131575), wk =   0.0625000
        k(   22) = (  -0.5000000  -0.2886766   0.0000000), wk =   0.0312500
        k(   23) = (  -0.5000000  -0.2886766   0.1565787), wk =   0.0625000
        k(   24) = (  -0.5000000  -0.2886766  -0.3131575), wk =   0.0312500
        k(   25) = (  -0.5000000  -0.0000080   0.0000000), wk =   0.0625000
        k(   26) = (  -0.5000000  -0.0000080   0.1565787), wk =   0.1250000
        k(   27) = (  -0.5000000  -0.0000080  -0.3131575), wk =   0.0625000
        k(   28) = (  -0.5000000  -0.8660138   0.0000000), wk =   0.0312500
        k(   29) = (  -0.5000000  -0.8660138   0.1565787), wk =   0.0625000
        k(   30) = (  -0.5000000  -0.8660138  -0.3131575), wk =   0.0312500

     Dense  grid:    21097 G-vectors     FFT dimensions: (  32,  32,  50)

     Estimated max dynamical RAM per process >      49.22MB
 
     G-vector sticks info
     --------------------
     sticks:   dense  smooth     PW     G-vecs:    dense   smooth      PW
     Sum         649     649    211                21097    21097    3861
 


     bravais-lattice index     =            0
     lattice parameter (alat)  =       6.8293  a.u.
     unit-cell volume          =     440.4257 (a.u.)^3
     number of atoms/cell      =            2
     number of atomic types    =            1
     number of electrons       =        36.00
     number of Kohn-Sham states=           22
     kinetic-energy cutoff     =      50.0000  Ry
     charge density cutoff     =     200.0000  Ry
     convergence threshold     =      1.0E-06
     mixing beta               =       0.7000
     number of iterations used =            8  plain     mixing
     Exchange-correlation      = SLA PW PBX PBC ( 1  4  3  4 0 0)
     nstep                     =          150


     celldm(1)=   6.829281  celldm(2)=   0.000000  celldm(3)=   0.000000
     celldm(4)=   0.000000  celldm(5)=   0.000000  celldm(6)=   0.000000

     crystal axes: (cart. coord. in units of alat)
               a(1) = (   1.000000   0.000000   0.000000 )  
               a(2) = (  -0.500014   0.866045   0.000000 )  
               a(3) = (   0.000000   0.000000   1.596641 )  

     reciprocal axes: (cart. coord. in units 2 pi/alat)
               b(1) = (  1.000000  0.577353  0.000000 )  
               b(2) = (  0.000000  1.154674  0.000000 )  
               b(3) = (  0.000000  0.000000  0.626315 )  


     PseudoPot. # 1 for Gd read from file:
     /home/shaharpit/AcHProject/meam_fit/dft/qe_potentials/Gd.GGA-PBE-paw-v1.0.UPF
     MD5 check sum: 3e8e0d208da550914ae52eaf991d13de
     Pseudo is Projector augmented-wave + core cor, Zval = 18.0
     Generated using ATOMPAW code
     Shape of augmentation charge: BESSEL
     Using radial grid of 1110 points,  8 beta functions with: 
                l(1) =   0
                l(2) =   0
[...]

   -30.1479 -30.1274  -8.6374  -8.5169  -8.1729  -8.1008  -7.9754  -7.9467
    10.6136  11.1516  11.8761  11.9457  11.9814  12.0186  12.0415  12.0456
    12.0542  12.0689  12.1030  12.1366  12.1855  12.1892

          k =-0.5000-0.8660-0.3132 (  2636 PWs)   bands (ev):

   -30.1376 -30.1376  -8.6325  -8.6325  -8.0246  -8.0246  -8.0137  -8.0137
    10.7548  10.7548  11.8893  11.8893  12.0261  12.0261  12.0366  12.0366
    12.0810  12.0810  12.0961  12.0961  12.1806  12.1806

     the Fermi energy is    12.1091 ev

!    total energy              =   -1366.91713853 Ry
     Harris-Foulkes estimate   =   -1366.91714021 Ry
     estimated scf accuracy    <       0.00000075 Ry

     total all-electron energy =     -1366.917139 Ry

     The total energy is the sum of the following terms:

     one-electron contribution =    -209.88996440 Ry
     hartree contribution      =     129.77832251 Ry
     xc contribution           =     -45.13185665 Ry
     ewald contribution        =    -309.89553063 Ry
     one-center paw contrib.   =    -931.73326441 Ry
     smearing contrib. (-TS)   =      -0.04484494 Ry

     convergence has been achieved in  56 iterations

     total cpu time spent up to now is      468.2 secs

     End of self-consistent calculation

          k = 0.0000 0.0000 0.0000 (  2647 PWs)   bands (ev):

   -30.2306 -30.1422  -8.6933  -7.9417  -7.9416  -7.8153  -7.8149  -7.7812
     7.8324  10.5232  11.9049  11.9419  11.9875  12.0325  12.0355  12.0695
    12.0775  12.0829  12.0831  12.0929  12.1744  12.1823

          k = 0.0000 0.0000 0.1566 (  2653 PWs)   bands (ev):

   -30.2177 -30.1552  -8.5698  -7.9261  -7.9234  -7.9232  -7.8340  -7.8337
     8.2847  10.3173  11.8846  11.9121  11.9711  12.0117  12.0124  12.0441
    12.0448  12.0784  12.1253  12.1300  12.2115  12.2168

          k = 0.0000 0.0000-0.3132 (  2616 PWs)   bands (ev):

   -30.1866 -30.1866  -8.2585  -8.2585  -7.8789  -7.8789  -7.8786  -7.8786
     9.3875   9.3875  11.8538  11.8538  12.0100  12.0100  12.0116  12.0116
    12.0298  12.0298  12.1992  12.1992  12.2036  12.2036

          k = 0.0000 0.2887 0.0000 (  2627 PWs)   bands (ev):

   -30.1950 -30.1291  -8.5358  -8.2642  -8.1369  -8.0412  -7.8619  -7.8561
     9.2165  11.4571  11.8911  11.9101  11.9258  11.9810  12.0515  12.0870
    12.0903  12.1013  12.1115  12.1159  12.1275  12.1698

          k = 0.0000 0.2887 0.1566 (  2628 PWs)   bands (ev):

   -30.1854 -30.1388  -8.5040  -8.2407  -8.1635  -8.0155  -7.8897  -7.8887
     9.5421  11.3165  11.8022  11.8838  11.9562  11.9790  12.0439  12.0582
    12.0598  12.0992  12.1079  12.1217  12.1519  12.1715

          k = 0.0000 0.2887-0.3132 (  2628 PWs)   bands (ev):

   -30.1622 -30.1622  -8.3905  -8.3905  -8.0109  -8.0109  -7.9526  -7.9526
    10.4077  10.4077  11.8270  11.8270  11.9811  11.9811  12.0411  12.0411
    12.0567  12.0567  12.1120  12.1120  12.1654  12.1654

          k = 0.0000-0.5773 0.0000 (  2642 PWs)   bands (ev):

   -30.1521 -30.1232  -8.5795  -8.4246  -8.3006  -8.1321  -8.0075  -7.9142
    10.9014  11.1875  11.5198  11.9448  12.0085  12.0187  12.0420  12.0558
    12.0590  12.0719  12.1181  12.1321  12.1764  12.1884

          k = 0.0000-0.5773 0.1566 (  2626 PWs)   bands (ev):

   -30.1479 -30.1274  -8.6372  -8.5168  -8.1726  -8.1010  -7.9756  -7.9469
    10.6138  11.1509  11.8736  11.9437  11.9782  12.0193  12.0417  12.0433
    12.0606  12.0691  12.1054  12.1359  12.1860  12.1875

          k = 0.0000-0.5773-0.3132 (  2636 PWs)   bands (ev):

   -30.1376 -30.1376  -8.6324  -8.6324  -8.0248  -8.0248  -8.0136  -8.0136
    10.7544  10.7544  11.8852  11.8852  12.0272  12.0272  12.0313  12.0313
    12.0856  12.0856  12.1005  12.1005  12.1800  12.1800

          k = 0.2500 0.1443 0.0000 (  2627 PWs)   bands (ev):

   -30.1950 -30.1291  -8.5358  -8.2644  -8.1371  -8.0411  -7.8618  -7.8561
     9.2165  11.4578  11.8877  11.9093  11.9276  11.9839  12.0473  12.0849
    12.0924  12.1065  12.1138  12.1183  12.1270  12.1654

          k = 0.2500 0.1443 0.1566 (  2628 PWs)   bands (ev):

   -30.1854 -30.1388  -8.5040  -8.2409  -8.1636  -8.0154  -7.8897  -7.8886
     9.5421  11.3171  11.8025  11.8837  11.9544  11.9804  12.0410  12.0583
    12.0614  12.0994  12.1101  12.1223  12.1514  12.1704

          k = 0.2500 0.1443-0.3132 (  2628 PWs)   bands (ev):

   -30.1622 -30.1622  -8.3905  -8.3905  -8.0109  -8.0109  -7.9525  -7.9525
    10.4078  10.4078  11.8283  11.8283  11.9798  11.9798  12.0393  12.0393
    12.0589  12.0589  12.1117  12.1117  12.1666  12.1666

          k = 0.2500 0.4330 0.0000 (  2626 PWs)   bands (ev):

   -30.1523 -30.1230  -8.4464  -8.3770  -8.3049  -8.1911  -8.0561  -8.0029
    11.1632  11.5706  11.9356  11.9376  11.9465  12.0019  12.0381  12.0741
    12.0756  12.0775  12.1242  12.1601  12.1762  12.1841

          k = 0.2500 0.4330 0.1566 (  2622 PWs)   bands (ev):

   -30.1480 -30.1273  -8.4999  -8.4710  -8.2379  -8.1592  -8.0607  -7.9415
    11.1694  11.5118  11.9061  11.9164  11.9657  11.9679  12.0081  12.0564
    12.0675  12.0810  12.1134  12.1212  12.1706  12.1851

          k = 0.2500 0.4330-0.3132 (  2644 PWs)   bands (ev):

   -30.1376 -30.1376  -8.5313  -8.5313  -8.1979  -8.1979  -7.9518  -7.9518
    11.3090  11.3090  11.8740  11.8740  11.9721  11.9721  12.0362  12.0362
    12.0531  12.0531  12.1127  12.1127  12.1787  12.1787

          k = 0.2500-0.4330 0.0000 (  2626 PWs)   bands (ev):

   -30.1523 -30.1229  -8.4464  -8.3770  -8.3051  -8.1911  -8.0561  -8.0028
    11.1631  11.5706  11.9363  11.9370  11.9469  12.0018  12.0385  12.0737
    12.0753  12.0778  12.1241  12.1604  12.1757  12.1832

          k = 0.2500-0.4330 0.1566 (  2622 PWs)   bands (ev):

   -30.1480 -30.1272  -8.4999  -8.4710  -8.2379  -8.1594  -8.0607  -7.9414
    11.1694  11.5118  11.9064  11.9166  11.9659  11.9683  12.0079  12.0567
    12.0676  12.0809  12.1133  12.1204  12.1708  12.1853

          k = 0.2500-0.4330-0.3132 (  2644 PWs)   bands (ev):

   -30.1376 -30.1376  -8.5313  -8.5313  -8.1980  -8.1980  -7.9517  -7.9517
    11.3090  11.3090  11.8745  11.8745  11.9723  11.9723  12.0360  12.0360
    12.0532  12.0532  12.1122  12.1122  12.1788  12.1788

          k = 0.2500-0.1443 0.0000 (  2627 PWs)   bands (ev):

   -30.1950 -30.1291  -8.5359  -8.2644  -8.1371  -8.0411  -7.8617  -7.8561
     9.2164  11.4576  11.8877  11.9093  11.9281  11.9843  12.0468  12.0848
    12.0918  12.1070  12.1143  12.1180  12.1269  12.1651

          k = 0.2500-0.1443 0.1566 (  2628 PWs)   bands (ev):

   -30.1854 -30.1388  -8.5040  -8.2408  -8.1637  -8.0153  -7.8897  -7.8885
     9.5421  11.3171  11.8025  11.8837  11.9546  11.9810  12.0405  12.0579
    12.0617  12.0992  12.1105  12.1222  12.1510  12.1704

          k = 0.2500-0.1443-0.3132 (  2628 PWs)   bands (ev):

   -30.1622 -30.1622  -8.3905  -8.3905  -8.0110  -8.0110  -7.9524  -7.9524
    10.4079  10.4079  11.8283  11.8283  11.9802  11.9802  12.0387  12.0387
    12.0592  12.0592  12.1116  12.1116  12.1669  12.1669

          k =-0.5000-0.2887 0.0000 (  2642 PWs)   bands (ev):

   -30.1521 -30.1232  -8.5797  -8.4247  -8.3006  -8.1320  -8.0075  -7.9141
    10.9014  11.1878  11.5188  11.9498  12.0127  12.0187  12.0394  12.0520
    12.0537  12.0753  12.1184  12.1341  12.1801  12.1912

          k =-0.5000-0.2887 0.1566 (  2626 PWs)   bands (ev):

   -30.1479 -30.1274  -8.6373  -8.5169  -8.1726  -8.1009  -7.9756  -7.9468
    10.6138  11.1513  11.8754  11.9451  11.9813  12.0187  12.0417  12.0450
    12.0545  12.0689  12.1032  12.1370  12.1854  12.1900

          k =-0.5000-0.2887-0.3132 (  2636 PWs)   bands (ev):

   -30.1376 -30.1376  -8.6326  -8.6326  -8.0247  -8.0247  -8.0136  -8.0136
    10.7545  10.7545  11.8885  11.8885  12.0263  12.0263  12.0360  12.0360
    12.0812  12.0812  12.0966  12.0966  12.1812  12.1812

          k =-0.5000-0.0000 0.0000 (  2626 PWs)   bands (ev):

   -30.1523 -30.1229  -8.4466  -8.3772  -8.3050  -8.1910  -8.0560  -8.0028
    11.1632  11.5705  11.9362  11.9371  11.9494  12.0001  12.0420  12.0710
    12.0739  12.0785  12.1248  12.1629  12.1742  12.1787

          k =-0.5000-0.0000 0.1566 (  2622 PWs)   bands (ev):

   -30.1480 -30.1272  -8.5000  -8.4712  -8.2377  -8.1594  -8.0605  -7.9414
    11.1695  11.5123  11.9077  11.9170  11.9669  11.9682  12.0048  12.0586
    12.0685  12.0788  12.1135  12.1165  12.1725  12.1866

          k =-0.5000-0.0000-0.3132 (  2644 PWs)   bands (ev):

   -30.1376 -30.1376  -8.5314  -8.5314  -8.1979  -8.1979  -7.9517  -7.9517
    11.3095  11.3095  11.8747  11.8747  11.9725  11.9725  12.0327  12.0327
    12.0552  12.0552  12.1106  12.1106  12.1796  12.1796

          k =-0.5000-0.8660 0.0000 (  2642 PWs)   bands (ev):

   -30.1521 -30.1231  -8.5797  -8.4247  -8.3010  -8.1320  -8.0071  -7.9140
    10.9009  11.1879  11.5182  11.9505  12.0132  12.0188  12.0393  12.0516
    12.0539  12.0756  12.1184  12.1336  12.1805  12.1913

          k =-0.5000-0.8660 0.1566 (  2626 PWs)   bands (ev):

   -30.1479 -30.1274  -8.6374  -8.5169  -8.1729  -8.1008  -7.9754  -7.9467
    10.6136  11.1516  11.8761  11.9457  11.9814  12.0186  12.0415  12.0456
    12.0542  12.0689  12.1030  12.1366  12.1855  12.1892

          k =-0.5000-0.8660-0.3132 (  2636 PWs)   bands (ev):

   -30.1376 -30.1376  -8.6325  -8.6325  -8.0246  -8.0246  -8.0137  -8.0137
    10.7548  10.7548  11.8893  11.8893  12.0261  12.0261  12.0366  12.0366
    12.0810  12.0810  12.0961  12.0961  12.1806  12.1806

     the Fermi energy is    12.1091 ev

!    total energy              =   -1366.91713853 Ry
     Harris-Foulkes estimate   =   -1366.91714021 Ry
     estimated scf accuracy    <       0.00000075 Ry

     total all-electron energy =     -1366.917139 Ry

     The total energy is the sum of the following terms:

     one-electron contribution =    -209.88996440 Ry
     hartree contribution      =     129.77832251 Ry
     xc contribution           =     -45.13185665 Ry
     ewald contribution        =    -309.89553063 Ry
     one-center paw contrib.   =    -931.73326441 Ry
     smearing contrib. (-TS)   =      -0.04484494 Ry

     convergence has been achieved in  56 iterations

     total cpu time spent up to now is      468.3 secs

     End of self-consistent calculation

          k = 0.0000 0.0000 0.0000 (  2647 PWs)   bands (ev):

   -30.2306 -30.1422  -8.6933  -7.9417  -7.9416  -7.8153  -7.8149  -7.7812
     7.8324  10.5232  11.9049  11.9419  11.9875  12.0325  12.0355  12.0695
    12.0775  12.0829  12.0831  12.0929  12.1744  12.1823

          k = 0.0000 0.0000 0.1566 (  2653 PWs)   bands (ev):

   -30.2177 -30.1552  -8.5698  -7.9261  -7.9234  -7.9232  -7.8340  -7.8337
     8.2847  10.3173  11.8846  11.9121  11.9711  12.0117  12.0124  12.0441
    12.0448  12.0784  12.1253  12.1300  12.2115  12.2168

          k = 0.0000 0.0000-0.3132 (  2616 PWs)   bands (ev):

   -30.1866 -30.1866  -8.2585  -8.2585  -7.8789  -7.8789  -7.8786  -7.8786
     9.3875   9.3875  11.8538  11.8538  12.0100  12.0100  12.0116  12.0116
    12.0298  12.0298  12.1992  12.1992  12.2036  12.2036

          k = 0.0000 0.2887 0.0000 (  2627 PWs)   bands (ev):

   -30.1950 -30.1291  -8.5358  -8.2642  -8.1369  -8.0412  -7.8619  -7.8561
     9.2165  11.4571  11.8911  11.9101  11.9258  11.9810  12.0515  12.0870
    12.0903  12.1013  12.1115  12.1159  12.1275  12.1698

          k = 0.0000 0.2887 0.1566 (  2628 PWs)   bands (ev):

   -30.1854 -30.1388  -8.5040  -8.2407  -8.1635  -8.0155  -7.8897  -7.8887
     9.5421  11.3165  11.8022  11.8838  11.9562  11.9790  12.0439  12.0582
    12.0598  12.0992  12.1079  12.1217  12.1519  12.1715

          k = 0.0000 0.2887-0.3132 (  2628 PWs)   bands (ev):

   -30.1622 -30.1622  -8.3905  -8.3905  -8.0109  -8.0109  -7.9526  -7.9526
    10.4077  10.4077  11.8270  11.8270  11.9811  11.9811  12.0411  12.0411
    12.0567  12.0567  12.1120  12.1120  12.1654  12.1654

          k = 0.0000-0.5773 0.0000 (  2642 PWs)   bands (ev):

   -30.1521 -30.1232  -8.5795  -8.4246  -8.3006  -8.1321  -8.0075  -7.9142
    10.9014  11.1875  11.5198  11.9448  12.0085  12.0187  12.0420  12.0558
    12.0590  12.0719  12.1181  12.1321  12.1764  12.1884

          k = 0.0000-0.5773 0.1566 (  2626 PWs)   bands (ev):

   -30.1479 -30.1274  -8.6372  -8.5168  -8.1726  -8.1010  -7.9756  -7.9469
    10.6138  11.1509  11.8736  11.9437  11.9782  12.0193  12.0417  12.0433
    12.0606  12.0691  12.1054  12.1359  12.1860  12.1875

          k = 0.0000-0.5773-0.3132 (  2636 PWs)   bands (ev):

   -30.1376 -30.1376  -8.6324  -8.6324  -8.0248  -8.0248  -8.0136  -8.0136
    10.7544  10.7544  11.8852  11.8852  12.0272  12.0272  12.0313  12.0313
    12.0856  12.0856  12.1005  12.1005  12.1800  12.1800

          k = 0.2500 0.1443 0.0000 (  2627 PWs)   bands (ev):

   -30.1950 -30.1291  -8.5358  -8.2644  -8.1371  -8.0411  -7.8618  -7.8561
     9.2165  11.4578  11.8877  11.9093  11.9276  11.9839  12.0473  12.0849
    12.0924  12.1065  12.1138  12.1183  12.1270  12.1654

          k = 0.2500 0.1443 0.1566 (  2628 PWs)   bands (ev):

   -30.1854 -30.1388  -8.5040  -8.2409  -8.1636  -8.0154  -7.8897  -7.8886
     9.5421  11.3171  11.8025  11.8837  11.9544  11.9804  12.0410  12.0583
    12.0614  12.0994  12.1101  12.1223  12.1514  12.1704

          k = 0.2500 0.1443-0.3132 (  2628 PWs)   bands (ev):

   -30.1622 -30.1622  -8.3905  -8.3905  -8.0109  -8.0109  -7.9525  -7.9525
    10.4078  10.4078  11.8283  11.8283  11.9798  11.9798  12.0393  12.0393
    12.0589  12.0589  12.1117  12.1117  12.1666  12.1666

          k = 0.2500 0.4330 0.0000 (  2626 PWs)   bands (ev):

   -30.1523 -30.1230  -8.4464  -8.3770  -8.3049  -8.1911  -8.0561  -8.0029
    11.1632  11.5706  11.9356  11.9376  11.9465  12.0019  12.0381  12.0741
    12.0756  12.0775  12.1242  12.1601  12.1762  12.1841

          k = 0.2500 0.4330 0.1566 (  2622 PWs)   bands (ev):

   -30.1480 -30.1273  -8.4999  -8.4710  -8.2379  -8.1592  -8.0607  -7.9415
    11.1694  11.5118  11.9061  11.9164  11.9657  11.9679  12.0081  12.0564
    12.0675  12.0810  12.1134  12.1212  12.1706  12.1851

          k = 0.2500 0.4330-0.3132 (  2644 PWs)   bands (ev):

   -30.1376 -30.1376  -8.5313  -8.5313  -8.1979  -8.1979  -7.9518  -7.9518
    11.3090  11.3090  11.8740  11.8740  11.9721  11.9721  12.0362  12.0362
    12.0531  12.0531  12.1127  12.1127  12.1787  12.1787

          k = 0.2500-0.4330 0.0000 (  2626 PWs)   bands (ev):

   -30.1523 -30.1229  -8.4464  -8.3770  -8.3051  -8.1911  -8.0561  -8.0028
    11.1631  11.5706  11.9363  11.9370  11.9469  12.0018  12.0385  12.0737
    12.0753  12.0778  12.1241  12.1604  12.1757  12.1832

          k = 0.2500-0.4330 0.1566 (  2622 PWs)   bands (ev):

   -30.1480 -30.1272  -8.4999  -8.4710  -8.2379  -8.1594  -8.0607  -7.9414
    11.1694  11.5118  11.9064  11.9166  11.9659  11.9683  12.0079  12.0567
    12.0676  12.0809  12.1133  12.1204  12.1708  12.1853

          k = 0.2500-0.4330-0.3132 (  2644 PWs)   bands (ev):

   -30.1376 -30.1376  -8.5313  -8.5313  -8.1980  -8.1980  -7.9517  -7.9517
    11.3090  11.3090  11.8745  11.8745  11.9723  11.9723  12.0360  12.0360
    12.0532  12.0532  12.1122  12.1122  12.1788  12.1788

          k = 0.2500-0.1443 0.0000 (  2627 PWs)   bands (ev):

   -30.1950 -30.1291  -8.5359  -8.2644  -8.1371  -8.0411  -7.8617  -7.8561
     9.2164  11.4576  11.8877  11.9093  11.9281  11.9843  12.0468  12.0848
    12.0918  12.1070  12.1143  12.1180  12.1269  12.1651

          k = 0.2500-0.1443 0.1566 (  2628 PWs)   bands (ev):

   -30.1854 -30.1388  -8.5040  -8.2408  -8.1637  -8.0153  -7.8897  -7.8885
     9.5421  11.3171  11.8025  11.8837  11.9546  11.9810  12.0405  12.0579
    12.0617  12.0992  12.1105  12.1222  12.1510  12.1704

          k = 0.2500-0.1443-0.3132 (  2628 PWs)   bands (ev):

   -30.1622 -30.1622  -8.3905  -8.3905  -8.0110  -8.0110  -7.9524  -7.9524
    10.4079  10.4079  11.8283  11.8283  11.9802  11.9802  12.0387  12.0387
    12.0592  12.0592  12.1116  12.1116  12.1669  12.1669

          k =-0.5000-0.2887 0.0000 (  2642 PWs)   bands (ev):

   -30.1521 -30.1232  -8.5797  -8.4247  -8.3006  -8.1320  -8.0075  -7.9141
    10.9014  11.1878  11.5188  11.9498  12.0127  12.0187  12.0394  12.0520
    12.0537  12.0753  12.1184  12.1341  12.1801  12.1912

          k =-0.5000-0.2887 0.1566 (  2626 PWs)   bands (ev):

   -30.1479 -30.1274  -8.6373  -8.5169  -8.1726  -8.1009  -7.9756  -7.9468
    10.6138  11.1513  11.8754  11.9451  11.9813  12.0187  12.0417  12.0450
    12.0545  12.0689  12.1032  12.1370  12.1854  12.1900

          k =-0.5000-0.2887-0.3132 (  2636 PWs)   bands (ev):

   -30.1376 -30.1376  -8.6326  -8.6326  -8.0247  -8.0247  -8.0136  -8.0136
    10.7545  10.7545  11.8885  11.8885  12.0263  12.0263  12.0360  12.0360
    12.0812  12.0812  12.0966  12.0966  12.1812  12.1812

          k =-0.5000-0.0000 0.0000 (  2626 PWs)   bands (ev):

   -30.1523 -30.1229  -8.4466  -8.3772  -8.3050  -8.1910  -8.0560  -8.0028
    11.1632  11.5705  11.9362  11.9371  11.9494  12.0001  12.0420  12.0710
    12.0739  12.0785  12.1248  12.1629  12.1742  12.1787

          k =-0.5000-0.0000 0.1566 (  2622 PWs)   bands (ev):

   -30.1480 -30.1272  -8.5000  -8.4712  -8.2377  -8.1594  -8.0605  -7.9414
    11.1695  11.5123  11.9077  11.9170  11.9669  11.9682  12.0048  12.0586
    12.0685  12.0788  12.1135  12.1165  12.1725  12.1866

          k =-0.5000-0.0000-0.3132 (  2644 PWs)   bands (ev):

   -30.1376 -30.1376  -8.5314  -8.5314  -8.1979  -8.1979  -7.9517  -7.9517
    11.3095  11.3095  11.8747  11.8747  11.9725  11.9725  12.0327  12.0327
    12.0552  12.0552  12.1106  12.1106  12.1796  12.1796

          k =-0.5000-0.8660 0.0000 (  2642 PWs)   bands (ev):

   -30.1521 -30.1231  -8.5797  -8.4247  -8.3010  -8.1320  -8.0071  -7.9140
    10.9009  11.1879  11.5182  11.9505  12.0132  12.0188  12.0393  12.0516
    12.0539  12.0756  12.1184  12.1336  12.1805  12.1913

          k =-0.5000-0.8660 0.1566 (  2626 PWs)   bands (ev):

   -30.1479 -30.1274  -8.6374  -8.5169  -8.1729  -8.1008  -7.9754  -7.9467
    10.6136  11.1516  11.8761  11.9457  11.9814  12.0186  12.0415  12.0456
    12.0542  12.0689  12.1030  12.1366  12.1855  12.1892

          k =-0.5000-0.8660-0.3132 (  2636 PWs)   bands (ev):

   -30.1376 -30.1376  -8.6325  -8.6325  -8.0246  -8.0246  -8.0137  -8.0137
    10.7548  10.7548  11.8893  11.8893  12.0261  12.0261  12.0366  12.0366
    12.0810  12.0810  12.0961  12.0961  12.1806  12.1806

     the Fermi energy is    12.1091 ev

!    total energy              =   -1366.91713853 Ry
     Harris-Foulkes estimate   =   -1366.91714021 Ry
     estimated scf accuracy    <       0.00000075 Ry

     total all-electron energy =     -1366.917139 Ry

     The total energy is the sum of the following terms:

     one-electron contribution =    -209.88996440 Ry
     hartree contribution      =     129.77832251 Ry
     xc contribution           =     -45.13185665 Ry
     ewald contribution        =    -309.89553063 Ry
     one-center paw contrib.   =    -931.73326441 Ry
     smearing contrib. (-TS)   =      -0.04484494 Ry

     convergence has been achieved in  56 iterations
     ethr =  7.91E-09,  avg # of iterations =  3.3

     BFGS Geometry Optimization

     bfgs converged in   1 scf cycles and   0 bfgs steps
     (criteria: energy <  1.0E-04 Ry, force <  1.0E-03 Ry/Bohr)

     End of BFGS Geometry Optimization

     Final energy   =   -1366.9171385277 Ry
Begin final coordinates

ATOMIC_POSITIONS (crystal)
Gd       0.666700000   0.333300000   0.750000000
Gd       0.333300000   0.666700000   0.250000000
End final coordinates



     Writing output data file 2242.save

     BFGS Geometry Optimization

     bfgs converged in   1 scf cycles and   0 bfgs steps
     (criteria: energy <  1.0E-04 Ry, force <  1.0E-03 Ry/Bohr)

     End of BFGS Geometry Optimization

     Final energy   =   -1366.9171385277 Ry
Begin final coordinates

ATOMIC_POSITIONS (crystal)
Gd       0.666700000   0.333300000   0.750000000
Gd       0.333300000   0.666700000   0.250000000
End final coordinates



     Writing output data file 2242.save
