


     Program PWSCF v.6.1 (svn rev. 13369) starts on  3Jul2022 at 12:25:51 

     This program is part of the open-source Quantum ESPRESSO suite
     for quantum simulation of materials; please cite
         "P. Giannozzi et al., J. Phys.:Condens. Matter 21 395502 (2009);
          URL http://www.quantum-espresso.org", 
     in publications or presentations arising from this work. More details at
     http://www.quantum-espresso.org/quote

     Parallel version (MPI), running on     1 processors

     Program PWSCF v.6.1 (svn rev. 13369) starts on  3Jul2022 at 12:25:51 

     Program PWSCF v.6.1 (svn rev. 13369) starts on  3Jul2022 at 12:25:51 

     This program is part of the open-source Quantum ESPRESSO suite
     for quantum simulation of materials; please cite
         "P. Giannozzi et al., J. Phys.:Condens. Matter 21 395502 (2009);
          URL http://www.quantum-espresso.org", 
     in publications or presentations arising from this work. More details at
     http://www.quantum-espresso.org/quote

     Parallel version (MPI), running on     1 processors

     Program PWSCF v.6.1 (svn rev. 13369) starts on  3Jul2022 at 12:25:51 

     This program is part of the open-source Quantum ESPRESSO suite
     for quantum simulation of materials; please cite
         "P. Giannozzi et al., J. Phys.:Condens. Matter 21 395502 (2009);
          URL http://www.quantum-espresso.org", 
     in publications or presentations arising from this work. More details at
     http://www.quantum-espresso.org/quote

     Parallel version (MPI), running on     1 processors

     Program PWSCF v.6.1 (svn rev. 13369) starts on  3Jul2022 at 12:25:51 

     This program is part of the open-source Quantum ESPRESSO suite
     for quantum simulation of materials; please cite
         "P. Giannozzi et al., J. Phys.:Condens. Matter 21 395502 (2009);
          URL http://www.quantum-espresso.org", 
     in publications or presentations arising from this work. More details at
     http://www.quantum-espresso.org/quote

     Parallel version (MPI), running on     1 processors
     Program PWSCF v.6.1 (svn rev. 13369) starts on  3Jul2022 at 12:25:51 

     This program is part of the open-source Quantum ESPRESSO suite
     for quantum simulation of materials; please cite
         "P. Giannozzi et al., J. Phys.:Condens. Matter 21 395502 (2009);
          URL http://www.quantum-espresso.org", 
     in publications or presentations arising from this work. More details at
     http://www.quantum-espresso.org/quote

     Parallel version (MPI), running on     1 processors

     Program PWSCF v.6.1 (svn rev. 13369) starts on  3Jul2022 at 12:25:51 

     This program is part of the open-source Quantum ESPRESSO suite
     for quantum simulation of materials; please cite
         "P. Giannozzi et al., J. Phys.:Condens. Matter 21 395502 (2009);
          URL http://www.quantum-espresso.org", 
     in publications or presentations arising from this work. More details at
     http://www.quantum-espresso.org/quote

     Parallel version (MPI), running on     1 processors

     Program PWSCF v.6.1 (svn rev. 13369) starts on  3Jul2022 at 12:25:51 

     This program is part of the open-source Quantum ESPRESSO suite
     for quantum simulation of materials; please cite
         "P. Giannozzi et al., J. Phys.:Condens. Matter 21 395502 (2009);
          URL http://www.quantum-espresso.org", 
     in publications or presentations arising from this work. More details at
     http://www.quantum-espresso.org/quote

     Parallel version (MPI), running on     1 processors

     Program PWSCF v.6.1 (svn rev. 13369) starts on  3Jul2022 at 12:25:51 

     This program is part of the open-source Quantum ESPRESSO suite
     for quantum simulation of materials; please cite
         "P. Giannozzi et al., J. Phys.:Condens. Matter 21 395502 (2009);
          URL http://www.quantum-espresso.org", 
     in publications or presentations arising from this work. More details at
     http://www.quantum-espresso.org/quote

     Parallel version (MPI), running on     1 processors

     Program PWSCF v.6.1 (svn rev. 13369) starts on  3Jul2022 at 12:25:51 

     This program is part of the open-source Quantum ESPRESSO suite
     for quantum simulation of materials; please cite
         "P. Giannozzi et al., J. Phys.:Condens. Matter 21 395502 (2009);
          URL http://www.quantum-espresso.org", 
     in publications or presentations arising from this work. More details at
     http://www.quantum-espresso.org/quote

     Parallel version (MPI), running on     1 processors

     Program PWSCF v.6.1 (svn rev. 13369) starts on  3Jul2022 at 12:25:51 

     This program is part of the open-source Quantum ESPRESSO suite
     for quantum simulation of materials; please cite
         "P. Giannozzi et al., J. Phys.:Condens. Matter 21 395502 (2009);
          URL http://www.quantum-espresso.org", 
     in publications or presentations arising from this work. More details at
     http://www.quantum-espresso.org/quote

     Parallel version (MPI), running on     1 processors

     Program PWSCF v.6.1 (svn rev. 13369) starts on  3Jul2022 at 12:25:51 

     This program is part of the open-source Quantum ESPRESSO suite
     for quantum simulation of materials; please cite
         "P. Giannozzi et al., J. Phys.:Condens. Matter 21 395502 (2009);
          URL http://www.quantum-espresso.org", 
     in publications or presentations arising from this work. More details at
     http://www.quantum-espresso.org/quote

     Parallel version (MPI), running on     1 processors

     This program is part of the open-source Quantum ESPRESSO suite
     for quantum simulation of materials; please cite
         "P. Giannozzi et al., J. Phys.:Condens. Matter 21 395502 (2009);
          URL http://www.quantum-espresso.org", 

     Program PWSCF v.6.1 (svn rev. 13369) starts on  3Jul2022 at 12:25:51 

     This program is part of the open-source Quantum ESPRESSO suite
     for quantum simulation of materials; please cite
         "P. Giannozzi et al., J. Phys.:Condens. Matter 21 395502 (2009);
          URL http://www.quantum-espresso.org", 
     in publications or presentations arising from this work. More details at
     http://www.quantum-espresso.org/quote

     Parallel version (MPI), running on     1 processors

     Program PWSCF v.6.1 (svn rev. 13369) starts on  3Jul2022 at 12:25:51 

     This program is part of the open-source Quantum ESPRESSO suite
     for quantum simulation of materials; please cite
         "P. Giannozzi et al., J. Phys.:Condens. Matter 21 395502 (2009);
          URL http://www.quantum-espresso.org", 
     in publications or presentations arising from this work. More details at
     http://www.quantum-espresso.org/quote

     Parallel version (MPI), running on     1 processors

     Program PWSCF v.6.1 (svn rev. 13369) starts on  3Jul2022 at 12:25:51 

     This program is part of the open-source Quantum ESPRESSO suite
     for quantum simulation of materials; please cite
         "P. Giannozzi et al., J. Phys.:Condens. Matter 21 395502 (2009);
          URL http://www.quantum-espresso.org", 
     in publications or presentations arising from this work. More details at
     http://www.quantum-espresso.org/quote

     Parallel version (MPI), running on     1 processors
     in publications or presentations arising from this work. More details at
     http://www.quantum-espresso.org/quote

     Parallel version (MPI), running on     1 processors
     Program PWSCF v.6.1 (svn rev. 13369) starts on  3Jul2022 at 12:25:51 

     This program is part of the open-source Quantum ESPRESSO suite
     for quantum simulation of materials; please cite
         "P. Giannozzi et al., J. Phys.:Condens. Matter 21 395502 (2009);
          URL http://www.quantum-espresso.org", 
     in publications or presentations arising from this work. More details at
     http://www.quantum-espresso.org/quote

     Parallel version (MPI), running on     1 processors
     Reading input from ./Gd_1.2.in
     Reading input from ./Gd_1.2.in
     Reading input from ./Gd_1.2.in
     Reading input from ./Gd_1.2.in
     Reading input from ./Gd_1.2.in
     Reading input from ./Gd_1.2.in
     Reading input from ./Gd_1.2.in
     Reading input from ./Gd_1.2.in
     Reading input from ./Gd_1.2.in
     Reading input from ./Gd_1.2.in
     Reading input from ./Gd_1.2.in
     Reading input from ./Gd_1.2.in
     Reading input from ./Gd_1.2.in
     Reading input from ./Gd_1.2.in
     Reading input from ./Gd_1.2.in
     Reading input from ./Gd_1.2.in
Warning: card &CELL ignored
Warning: card / ignored
Warning: card &CELL ignored
Warning: card / ignored
Warning: card H 1.00794 H.PBE-RRKJUS_PSL.1.0.0.UPF ignored
Warning: card H 1.00794 H.PBE-RRKJUS_PSL.1.0.0.UPF ignored
Warning: card &CELL ignored
Warning: card / ignored
Warning: card H 1.00794 H.PBE-RRKJUS_PSL.1.0.0.UPF ignored
Warning: card &CELL ignored
Warning: card / ignored
Warning: card H 1.00794 H.PBE-RRKJUS_PSL.1.0.0.UPF ignored
Warning: card &CELL ignored
Warning: card / ignored
Warning: card H 1.00794 H.PBE-RRKJUS_PSL.1.0.0.UPF ignored
Warning: card &CELL ignored
Warning: card / ignored
Warning: card H 1.00794 H.PBE-RRKJUS_PSL.1.0.0.UPF ignored
Warning: card &CELL ignored
Warning: card / ignored
Warning: card &CELL ignored
Warning: card / ignored
Warning: card H 1.00794 H.PBE-RRKJUS_PSL.1.0.0.UPF ignored
Warning: card H 1.00794 H.PBE-RRKJUS_PSL.1.0.0.UPF ignored
Warning: card &CELL ignored
Warning: card / ignored

     Current dimensions of program PWSCF are:
     Max number of different atomic species (ntypx) = 10
     Max number of k-points (npk) =  40000
     Max angular momentum in pseudopotentials (lmaxx) =  3

     Current dimensions of program PWSCF are:
     Max number of different atomic species (ntypx) = 10
     Max number of k-points (npk) =  40000
     Max angular momentum in pseudopotentials (lmaxx) =  3

     Current dimensions of program PWSCF are:
     Max number of different atomic species (ntypx) = 10
     Max number of k-points (npk) =  40000
     Max angular momentum in pseudopotentials (lmaxx) =  3

     Current dimensions of program PWSCF are:
     Max number of different atomic species (ntypx) = 10
     Max number of k-points (npk) =  40000
     Max angular momentum in pseudopotentials (lmaxx) =  3

     Current dimensions of program PWSCF are:
     Max number of different atomic species (ntypx) = 10
     Max number of k-points (npk) =  40000
     Max angular momentum in pseudopotentials (lmaxx) =  3

     Current dimensions of program PWSCF are:
     Max number of different atomic species (ntypx) = 10
     Max number of k-points (npk) =  40000
     Max angular momentum in pseudopotentials (lmaxx) =  3

     Current dimensions of program PWSCF are:
     Max number of different atomic species (ntypx) = 10
     Max number of k-points (npk) =  40000
     Max angular momentum in pseudopotentials (lmaxx) =  3

     Current dimensions of program PWSCF are:
     Max number of different atomic species (ntypx) = 10
     Max number of k-points (npk) =  40000
     Max angular momentum in pseudopotentials (lmaxx) =  3
Warning: card H 1.00794 H.PBE-RRKJUS_PSL.1.0.0.UPF ignored

     Current dimensions of program PWSCF are:
     Max number of different atomic species (ntypx) = 10
     Max number of k-points (npk) =  40000
     Max angular momentum in pseudopotentials (lmaxx) =  3
Warning: card &CELL ignored
Warning: card / ignored
Warning: card H 1.00794 H.PBE-RRKJUS_PSL.1.0.0.UPF ignored

     Current dimensions of program PWSCF are:
     Max number of different atomic species (ntypx) = 10
     Max number of k-points (npk) =  40000
     Max angular momentum in pseudopotentials (lmaxx) =  3
Warning: card &CELL ignored
Warning: card / ignored
Warning: card &CELL ignored
Warning: card / ignored
Warning: card &CELL ignored
Warning: card / ignored
Warning: card H 1.00794 H.PBE-RRKJUS_PSL.1.0.0.UPF ignored
Warning: card &CELL ignored
Warning: card / ignored
Warning: card H 1.00794 H.PBE-RRKJUS_PSL.1.0.0.UPF ignored
Warning: card H 1.00794 H.PBE-RRKJUS_PSL.1.0.0.UPF ignored
Warning: card H 1.00794 H.PBE-RRKJUS_PSL.1.0.0.UPF ignored

     Current dimensions of program PWSCF are:
     Max number of different atomic species (ntypx) = 10
     Max number of k-points (npk) =  40000

     Current dimensions of program PWSCF are:
     Max number of different atomic species (ntypx) = 10
     Max angular momentum in pseudopotentials (lmaxx) =  3
     Max number of k-points (npk) =  40000
     Max angular momentum in pseudopotentials (lmaxx) =  3

     Current dimensions of program PWSCF are:
     Max number of different atomic species (ntypx) = 10
     Max number of k-points (npk) =  40000
     Max angular momentum in pseudopotentials (lmaxx) =  3

     Current dimensions of program PWSCF are:
     Max number of different atomic species (ntypx) = 10
     Max number of k-points (npk) =  40000
     Max angular momentum in pseudopotentials (lmaxx) =  3
Warning: card &CELL ignored
Warning: card / ignored
Warning: card H 1.00794 H.PBE-RRKJUS_PSL.1.0.0.UPF ignored

     Current dimensions of program PWSCF are:
     Max number of different atomic species (ntypx) = 10
     Max number of k-points (npk) =  40000
     Max angular momentum in pseudopotentials (lmaxx) =  3
Warning: card &CELL ignored
Warning: card / ignored
Warning: card H 1.00794 H.PBE-RRKJUS_PSL.1.0.0.UPF ignored

     Current dimensions of program PWSCF are:
     Max number of different atomic species (ntypx) = 10
     Max number of k-points (npk) =  40000
     Max angular momentum in pseudopotentials (lmaxx) =  3
               file Gd.GGA-PBE-paw-v1.0.UPF: wavefunction(s)  Xn Xn Xn Xn Xn Xn renormalized
               file Gd.GGA-PBE-paw-v1.0.UPF: wavefunction(s)  Xn Xn Xn Xn Xn Xn renormalized

     Subspace diagonalization in iterative solution of the eigenvalue problem:
     a serial algorithm will be used

               file Gd.GGA-PBE-paw-v1.0.UPF: wavefunction(s)  Xn Xn Xn Xn Xn Xn renormalized

     Subspace diagonalization in iterative solution of the eigenvalue problem:
     a serial algorithm will be used

 
     G-vector sticks info
     --------------------
     sticks:   dense  smooth     PW     G-vecs:    dense   smooth      PW
     Sum         733     733    211                25313    25313    3995
 


     bravais-lattice index     =            0
     lattice parameter (alat)  =       7.2573  a.u.
     unit-cell volume          =     528.5135 (a.u.)^3
     number of atoms/cell      =            2
     number of atomic types    =            1
     number of electrons       =        36.00
     number of Kohn-Sham states=           22
     kinetic-energy cutoff     =      50.0000  Ry
     charge density cutoff     =     200.0000  Ry
     convergence threshold     =      1.0E-06
     mixing beta               =       0.7000
     number of iterations used =            8  plain     mixing
     Exchange-correlation      = SLA PW PBX PBC ( 1  4  3  4 0 0)
     nstep                     =          150


     celldm(1)=   7.257304  celldm(2)=   0.000000  celldm(3)=   0.000000
     celldm(4)=   0.000000  celldm(5)=   0.000000  celldm(6)=   0.000000

     crystal axes: (cart. coord. in units of alat)
               a(1) = (   1.000000   0.000000   0.000000 )  
               a(2) = (  -0.500000   0.866030   0.000000 )  
               a(3) = (   0.000000   0.000000   1.596605 )  

     reciprocal axes: (cart. coord. in units 2 pi/alat)
               b(1) = (  1.000000  0.577347  0.000000 )  
               b(2) = (  0.000000  1.154695  0.000000 )  
               b(3) = (  0.000000  0.000000  0.626329 )  


     PseudoPot. # 1 for Gd read from file:
     /home/shaharpit/AcHProject/meam_fit/dft/qe_potentials/Gd.GGA-PBE-paw-v1.0.UPF
     MD5 check sum: 3e8e0d208da550914ae52eaf991d13de
     Pseudo is Projector augmented-wave + core cor, Zval = 18.0
     Generated using ATOMPAW code
     Shape of augmentation charge: BESSEL
     Using radial grid of 1110 points,  8 beta functions with: 
                l(1) =   0
                l(2) =   0
                l(3) =   1
                l(4) =   1
                l(5) =   2
                l(6) =   2
                l(7) =   3
                l(8) =   3
     Q(r) pseudized with 0 coefficients 


     atomic species   valence    mass     pseudopotential
        Gd            18.00   157.25000     Gd( 1.00)

      4 Sym. Ops., with inversion, found ( 2 have fractional translation)



   Cartesian axes

     site n.     atom                  positions (alat units)
         1           Gd  tau(   1) = (   0.5000500   0.2886477   1.1974534  )
         2           Gd  tau(   2) = (  -0.0000500   0.5773819   0.3991511  )

     number of k points=    30  gaussian smearing, width (Ry)=  0.0100
                       cart. coord. in units 2pi/alat
        k(    1) = (   0.0000000   0.0000000   0.0000000), wk =   0.0312500
        k(    2) = (   0.0000000   0.0000000   0.1565823), wk =   0.0625000
        k(    3) = (   0.0000000   0.0000000  -0.3131646), wk =   0.0312500
        k(    4) = (   0.0000000   0.2886737   0.0000000), wk =   0.0625000
        k(    5) = (   0.0000000   0.2886737   0.1565823), wk =   0.1250000
        k(    6) = (   0.0000000   0.2886737  -0.3131646), wk =   0.0625000
        k(    7) = (   0.0000000  -0.5773475   0.0000000), wk =   0.0312500
        k(    8) = (   0.0000000  -0.5773475   0.1565823), wk =   0.0625000
        k(    9) = (   0.0000000  -0.5773475  -0.3131646), wk =   0.0312500
        k(   10) = (   0.2500000   0.1443369   0.0000000), wk =   0.0625000
        k(   11) = (   0.2500000   0.1443369   0.1565823), wk =   0.1250000
        k(   12) = (   0.2500000   0.1443369  -0.3131646), wk =   0.0625000
        k(   13) = (   0.2500000   0.4330106   0.0000000), wk =   0.0625000
        k(   14) = (   0.2500000   0.4330106   0.1565823), wk =   0.1250000
        k(   15) = (   0.2500000   0.4330106  -0.3131646), wk =   0.0625000
        k(   16) = (  -0.5000000  -0.2886737   0.0000000), wk =   0.0312500
        k(   17) = (  -0.5000000  -0.2886737   0.1565823), wk =   0.0625000
        k(   18) = (  -0.5000000  -0.2886737  -0.3131646), wk =   0.0312500
        k(   19) = (  -0.5000000   0.0000000   0.0000000), wk =   0.0625000
        k(   20) = (  -0.5000000   0.0000000   0.1565823), wk =   0.1250000
        k(   21) = (  -0.5000000   0.0000000  -0.3131646), wk =   0.0625000
        k(   22) = (  -0.2500000   0.1443369   0.0000000), wk =   0.0625000
        k(   23) = (  -0.2500000   0.1443369  -0.1565823), wk =   0.1250000
        k(   24) = (  -0.2500000   0.1443369   0.3131646), wk =   0.0625000
        k(   25) = (  -0.2500000   0.4330106   0.0000000), wk =   0.0625000
        k(   26) = (  -0.2500000   0.4330106  -0.1565823), wk =   0.1250000
        k(   27) = (  -0.2500000   0.4330106   0.3131646), wk =   0.0625000
        k(   28) = (   0.5000000  -0.2886737   0.0000000), wk =   0.0312500
        k(   29) = (   0.5000000  -0.2886737  -0.1565823), wk =   0.0625000
        k(   30) = (   0.5000000  -0.2886737   0.3131646), wk =   0.0312500

     Dense  grid:    25313 G-vectors     FFT dimensions: (  36,  36,  54)

     Estimated max dynamical RAM per process >      59.59MB
 
     G-vector sticks info
     --------------------
     sticks:   dense  smooth     PW     G-vecs:    dense   smooth      PW
     Sum         733     733    211                25313    25313    3995
 


     bravais-lattice index     =            0
     lattice parameter (alat)  =       7.2573  a.u.
     unit-cell volume          =     528.5135 (a.u.)^3
     number of atoms/cell      =            2
     number of atomic types    =            1
     number of electrons       =        36.00
     number of Kohn-Sham states=           22
     kinetic-energy cutoff     =      50.0000  Ry
     charge density cutoff     =     200.0000  Ry
     convergence threshold     =      1.0E-06
     mixing beta               =       0.7000
     number of iterations used =            8  plain     mixing
     Exchange-correlation      = SLA PW PBX PBC ( 1  4  3  4 0 0)
     nstep                     =          150


     celldm(1)=   7.257304  celldm(2)=   0.000000  celldm(3)=   0.000000
     celldm(4)=   0.000000  celldm(5)=   0.000000  celldm(6)=   0.000000

     crystal axes: (cart. coord. in units of alat)
               a(1) = (   1.000000   0.000000   0.000000 )  
               a(2) = (  -0.500000   0.866030   0.000000 )  
               a(3) = (   0.000000   0.000000   1.596605 )  

     reciprocal axes: (cart. coord. in units 2 pi/alat)
               b(1) = (  1.000000  0.577347  0.000000 )  
               b(2) = (  0.000000  1.154695  0.000000 )  
               b(3) = (  0.000000  0.000000  0.626329 )  


     PseudoPot. # 1 for Gd read from file:
     /home/shaharpit/AcHProject/meam_fit/dft/qe_potentials/Gd.GGA-PBE-paw-v1.0.UPF
     MD5 check sum: 3e8e0d208da550914ae52eaf991d13de
     Pseudo is Projector augmented-wave + core cor, Zval = 18.0
     Generated using ATOMPAW code
     Shape of augmentation charge: BESSEL
     Using radial grid of 1110 points,  8 beta functions with: 
                l(1) =   0
                l(2) =   0
                l(3) =   1
                l(4) =   1
                l(5) =   2
                l(6) =   2
                l(7) =   3
                l(8) =   3
     Q(r) pseudized with 0 coefficients 


     atomic species   valence    mass     pseudopotential
        Gd            18.00   157.25000     Gd( 1.00)

      4 Sym. Ops., with inversion, found ( 2 have fractional translation)



   Cartesian axes

     site n.     atom                  positions (alat units)
         1           Gd  tau(   1) = (   0.5000500   0.2886477   1.1974534  )
         2           Gd  tau(   2) = (  -0.0000500   0.5773819   0.3991511  )

     number of k points=    30  gaussian smearing, width (Ry)=  0.0100
                       cart. coord. in units 2pi/alat
        k(    1) = (   0.0000000   0.0000000   0.0000000), wk =   0.0312500
        k(    2) = (   0.0000000   0.0000000   0.1565823), wk =   0.0625000
        k(    3) = (   0.0000000   0.0000000  -0.3131646), wk =   0.0312500
        k(    4) = (   0.0000000   0.2886737   0.0000000), wk =   0.0625000
        k(    5) = (   0.0000000   0.2886737   0.1565823), wk =   0.1250000
        k(    6) = (   0.0000000   0.2886737  -0.3131646), wk =   0.0625000
        k(    7) = (   0.0000000  -0.5773475   0.0000000), wk =   0.0312500
        k(    8) = (   0.0000000  -0.5773475   0.1565823), wk =   0.0625000
        k(    9) = (   0.0000000  -0.5773475  -0.3131646), wk =   0.0312500
        k(   10) = (   0.2500000   0.1443369   0.0000000), wk =   0.0625000
        k(   11) = (   0.2500000   0.1443369   0.1565823), wk =   0.1250000
        k(   12) = (   0.2500000   0.1443369  -0.3131646), wk =   0.0625000
        k(   13) = (   0.2500000   0.4330106   0.0000000), wk =   0.0625000
        k(   14) = (   0.2500000   0.4330106   0.1565823), wk =   0.1250000
        k(   15) = (   0.2500000   0.4330106  -0.3131646), wk =   0.0625000
        k(   16) = (  -0.5000000  -0.2886737   0.0000000), wk =   0.0312500
        k(   17) = (  -0.5000000  -0.2886737   0.1565823), wk =   0.0625000
        k(   18) = (  -0.5000000  -0.2886737  -0.3131646), wk =   0.0312500
        k(   19) = (  -0.5000000   0.0000000   0.0000000), wk =   0.0625000
        k(   20) = (  -0.5000000   0.0000000   0.1565823), wk =   0.1250000
        k(   21) = (  -0.5000000   0.0000000  -0.3131646), wk =   0.0625000
        k(   22) = (  -0.2500000   0.1443369   0.0000000), wk =   0.0625000
        k(   23) = (  -0.2500000   0.1443369  -0.1565823), wk =   0.1250000
        k(   24) = (  -0.2500000   0.1443369   0.3131646), wk =   0.0625000
        k(   25) = (  -0.2500000   0.4330106   0.0000000), wk =   0.0625000
        k(   26) = (  -0.2500000   0.4330106  -0.1565823), wk =   0.1250000
        k(   27) = (  -0.2500000   0.4330106   0.3131646), wk =   0.0625000
        k(   28) = (   0.5000000  -0.2886737   0.0000000), wk =   0.0312500
        k(   29) = (   0.5000000  -0.2886737  -0.1565823), wk =   0.0625000
        k(   30) = (   0.5000000  -0.2886737   0.3131646), wk =   0.0312500

     Dense  grid:    25313 G-vectors     FFT dimensions: (  36,  36,  54)

     Estimated max dynamical RAM per process >      59.59MB
               file Gd.GGA-PBE-paw-v1.0.UPF: wavefunction(s)  Xn Xn Xn Xn Xn Xn renormalized

     Subspace diagonalization in iterative solution of the eigenvalue problem:
     a serial algorithm will be used


     Subspace diagonalization in iterative solution of the eigenvalue problem:
     a serial algorithm will be used

 
     G-vector sticks info
     --------------------
     sticks:   dense  smooth     PW     G-vecs:    dense   smooth      PW
     Sum         733     733    211                25313    25313    3995
 


     bravais-lattice index     =            0
     lattice parameter (alat)  =       7.2573  a.u.
     unit-cell volume          =     528.5135 (a.u.)^3
     number of atoms/cell      =            2
     number of atomic types    =            1
     number of electrons       =        36.00
     number of Kohn-Sham states=           22
     kinetic-energy cutoff     =      50.0000  Ry
     charge density cutoff     =     200.0000  Ry
     convergence threshold     =      1.0E-06
     mixing beta               =       0.7000
     number of iterations used =            8  plain     mixing
     Exchange-correlation      = SLA PW PBX PBC ( 1  4  3  4 0 0)
     nstep                     =          150


     celldm(1)=   7.257304  celldm(2)=   0.000000  celldm(3)=   0.000000
     celldm(4)=   0.000000  celldm(5)=   0.000000  celldm(6)=   0.000000

     crystal axes: (cart. coord. in units of alat)
               a(1) = (   1.000000   0.000000   0.000000 )  
               a(2) = (  -0.500000   0.866030   0.000000 )  
 
     G-vector sticks info
               a(3) = (   0.000000   0.000000   1.596605 )  

     reciprocal axes: (cart. coord. in units 2 pi/alat)
     --------------------
     sticks:   dense  smooth     PW     G-vecs:    dense   smooth      PW
     Sum         733     733    211                25313    25313    3995
 
               b(1) = (  1.000000  0.577347  0.000000 )  
               b(2) = (  0.000000  1.154695  0.000000 )  
               b(3) = (  0.000000  0.000000  0.626329 )  


     PseudoPot. # 1 for Gd read from file:
     /home/shaharpit/AcHProject/meam_fit/dft/qe_potentials/Gd.GGA-PBE-paw-v1.0.UPF
     MD5 check sum: 3e8e0d208da550914ae52eaf991d13de
     Pseudo is Projector augmented-wave + core cor, Zval = 18.0
     Generated using ATOMPAW code
     Shape of augmentation charge: BESSEL
     Using radial grid of 1110 points,  8 beta functions with: 
                l(1) =   0


     bravais-lattice index     =            0
                l(2) =   0
                l(3) =   1
                l(4) =   1
     lattice parameter (alat)  =       7.2573  a.u.
     unit-cell volume          =     528.5135 (a.u.)^3
     number of atoms/cell      =            2
     number of atomic types    =            1
     number of electrons       =        36.00
     number of Kohn-Sham states=           22
                l(5) =   2
                l(6) =   2
                l(7) =   3
                l(8) =   3
     Q(r) pseudized with 0 coefficients 


     atomic species   valence    mass     pseudopotential
     kinetic-energy cutoff     =      50.0000  Ry
     charge density cutoff     =     200.0000  Ry
     convergence threshold     =      1.0E-06
        Gd            18.00   157.25000     Gd( 1.00)

      4 Sym. Ops., with inversion, found ( 2 have fractional translation)


     mixing beta               =       0.7000
     number of iterations used =            8  plain     mixing
     Exchange-correlation      = SLA PW PBX PBC ( 1  4  3  4 0 0)
     nstep                     =          150



   Cartesian axes

     site n.     atom                  positions (alat units)
         1           Gd  tau(   1) = (   0.5000500   0.2886477   1.1974534  )
     celldm(1)=   7.257304  celldm(2)=   0.000000  celldm(3)=   0.000000
     celldm(4)=   0.000000  celldm(5)=   0.000000  celldm(6)=   0.000000

         2           Gd  tau(   2) = (  -0.0000500   0.5773819   0.3991511  )

     number of k points=    30  gaussian smearing, width (Ry)=  0.0100
                       cart. coord. in units 2pi/alat
     crystal axes: (cart. coord. in units of alat)
               a(1) = (   1.000000   0.000000   0.000000 )  
               a(2) = (  -0.500000   0.866030   0.000000 )  
               a(3) = (   0.000000   0.000000   1.596605 )  

        k(    1) = (   0.0000000   0.0000000   0.0000000), wk =   0.0312500
        k(    2) = (   0.0000000   0.0000000   0.1565823), wk =   0.0625000
        k(    3) = (   0.0000000   0.0000000  -0.3131646), wk =   0.0312500
        k(    4) = (   0.0000000   0.2886737   0.0000000), wk =   0.0625000
        k(    5) = (   0.0000000   0.2886737   0.1565823), wk =   0.1250000
     reciprocal axes: (cart. coord. in units 2 pi/alat)
               b(1) = (  1.000000  0.577347  0.000000 )  
               b(2) = (  0.000000  1.154695  0.000000 )  
        k(    6) = (   0.0000000   0.2886737  -0.3131646), wk =   0.0625000
        k(    7) = (   0.0000000  -0.5773475   0.0000000), wk =   0.0312500
        k(    8) = (   0.0000000  -0.5773475   0.1565823), wk =   0.0625000
        k(    9) = (   0.0000000  -0.5773475  -0.3131646), wk =   0.0312500
               b(3) = (  0.000000  0.000000  0.626329 )  


     PseudoPot. # 1 for Gd read from file:
     /home/shaharpit/AcHProject/meam_fit/dft/qe_potentials/Gd.GGA-PBE-paw-v1.0.UPF
        k(   10) = (   0.2500000   0.1443369   0.0000000), wk =   0.0625000
        k(   11) = (   0.2500000   0.1443369   0.1565823), wk =   0.1250000
        k(   12) = (   0.2500000   0.1443369  -0.3131646), wk =   0.0625000
        k(   13) = (   0.2500000   0.4330106   0.0000000), wk =   0.0625000
     MD5 check sum: 3e8e0d208da550914ae52eaf991d13de
     Pseudo is Projector augmented-wave + core cor, Zval = 18.0
     Generated using ATOMPAW code
     Shape of augmentation charge: BESSEL
        k(   14) = (   0.2500000   0.4330106   0.1565823), wk =   0.1250000
        k(   15) = (   0.2500000   0.4330106  -0.3131646), wk =   0.0625000
        k(   16) = (  -0.5000000  -0.2886737   0.0000000), wk =   0.0312500
        k(   17) = (  -0.5000000  -0.2886737   0.1565823), wk =   0.0625000
        k(   18) = (  -0.5000000  -0.2886737  -0.3131646), wk =   0.0312500
     Using radial grid of 1110 points,  8 beta functions with: 
                l(1) =   0
                l(2) =   0
                l(3) =   1
                l(4) =   1
                l(5) =   2
        k(   19) = (  -0.5000000   0.0000000   0.0000000), wk =   0.0625000
        k(   20) = (  -0.5000000   0.0000000   0.1565823), wk =   0.1250000
        k(   21) = (  -0.5000000   0.0000000  -0.3131646), wk =   0.0625000
        k(   22) = (  -0.2500000   0.1443369   0.0000000), wk =   0.0625000
                l(6) =   2
                l(7) =   3
                l(8) =   3
     Q(r) pseudized with 0 coefficients 


     atomic species   valence    mass     pseudopotential
        Gd            18.00   157.25000     Gd( 1.00)
        k(   23) = (  -0.2500000   0.1443369  -0.1565823), wk =   0.1250000
        k(   24) = (  -0.2500000   0.1443369   0.3131646), wk =   0.0625000
        k(   25) = (  -0.2500000   0.4330106   0.0000000), wk =   0.0625000
        k(   26) = (  -0.2500000   0.4330106  -0.1565823), wk =   0.1250000
        k(   27) = (  -0.2500000   0.4330106   0.3131646), wk =   0.0625000
        k(   28) = (   0.5000000  -0.2886737   0.0000000), wk =   0.0312500
        k(   29) = (   0.5000000  -0.2886737  -0.1565823), wk =   0.0625000
        k(   30) = (   0.5000000  -0.2886737   0.3131646), wk =   0.0312500

      4 Sym. Ops., with inversion, found ( 2 have fractional translation)



   Cartesian axes

     site n.     atom                  positions (alat units)
         1           Gd  tau(   1) = (   0.5000500   0.2886477   1.1974534  )

     Dense  grid:    25313 G-vectors     FFT dimensions: (  36,  36,  54)

     Estimated max dynamical RAM per process >      59.59MB
         2           Gd  tau(   2) = (  -0.0000500   0.5773819   0.3991511  )

     number of k points=    30  gaussian smearing, width (Ry)=  0.0100
                       cart. coord. in units 2pi/alat
        k(    1) = (   0.0000000   0.0000000   0.0000000), wk =   0.0312500
        k(    2) = (   0.0000000   0.0000000   0.1565823), wk =   0.0625000
        k(    3) = (   0.0000000   0.0000000  -0.3131646), wk =   0.0312500
        k(    4) = (   0.0000000   0.2886737   0.0000000), wk =   0.0625000
        k(    5) = (   0.0000000   0.2886737   0.1565823), wk =   0.1250000
        k(    6) = (   0.0000000   0.2886737  -0.3131646), wk =   0.0625000
        k(    7) = (   0.0000000  -0.5773475   0.0000000), wk =   0.0312500
        k(    8) = (   0.0000000  -0.5773475   0.1565823), wk =   0.0625000
        k(    9) = (   0.0000000  -0.5773475  -0.3131646), wk =   0.0312500
        k(   10) = (   0.2500000   0.1443369   0.0000000), wk =   0.0625000
        k(   11) = (   0.2500000   0.1443369   0.1565823), wk =   0.1250000
        k(   12) = (   0.2500000   0.1443369  -0.3131646), wk =   0.0625000
        k(   13) = (   0.2500000   0.4330106   0.0000000), wk =   0.0625000
        k(   14) = (   0.2500000   0.4330106   0.1565823), wk =   0.1250000
        k(   15) = (   0.2500000   0.4330106  -0.3131646), wk =   0.0625000
        k(   16) = (  -0.5000000  -0.2886737   0.0000000), wk =   0.0312500
        k(   17) = (  -0.5000000  -0.2886737   0.1565823), wk =   0.0625000
        k(   18) = (  -0.5000000  -0.2886737  -0.3131646), wk =   0.0312500
        k(   19) = (  -0.5000000   0.0000000   0.0000000), wk =   0.0625000
        k(   20) = (  -0.5000000   0.0000000   0.1565823), wk =   0.1250000
        k(   21) = (  -0.5000000   0.0000000  -0.3131646), wk =   0.0625000
        k(   22) = (  -0.2500000   0.1443369   0.0000000), wk =   0.0625000
        k(   23) = (  -0.2500000   0.1443369  -0.1565823), wk =   0.1250000
        k(   24) = (  -0.2500000   0.1443369   0.3131646), wk =   0.0625000
        k(   25) = (  -0.2500000   0.4330106   0.0000000), wk =   0.0625000
        k(   26) = (  -0.2500000   0.4330106  -0.1565823), wk =   0.1250000
        k(   27) = (  -0.2500000   0.4330106   0.3131646), wk =   0.0625000
        k(   28) = (   0.5000000  -0.2886737   0.0000000), wk =   0.0312500
        k(   29) = (   0.5000000  -0.2886737  -0.1565823), wk =   0.0625000
        k(   30) = (   0.5000000  -0.2886737   0.3131646), wk =   0.0312500

     Dense  grid:    25313 G-vectors     FFT dimensions: (  36,  36,  54)

     Estimated max dynamical RAM per process >      59.59MB
               file Gd.GGA-PBE-paw-v1.0.UPF: wavefunction(s)  Xn Xn Xn Xn Xn Xn renormalized
               file Gd.GGA-PBE-paw-v1.0.UPF: wavefunction(s)  Xn Xn Xn Xn Xn Xn renormalized

     Subspace diagonalization in iterative solution of the eigenvalue problem:
     a serial algorithm will be used

 
     G-vector sticks info
     --------------------
     sticks:   dense  smooth     PW     G-vecs:    dense   smooth      PW
     Sum         733     733    211                25313    25313    3995
 


     bravais-lattice index     =            0
     lattice parameter (alat)  =       7.2573  a.u.
     unit-cell volume          =     528.5135 (a.u.)^3
     number of atoms/cell      =            2
     number of atomic types    =            1
     number of electrons       =        36.00
     number of Kohn-Sham states=           22
     kinetic-energy cutoff     =      50.0000  Ry
     charge density cutoff     =     200.0000  Ry
     convergence threshold     =      1.0E-06
     mixing beta               =       0.7000
     number of iterations used =            8  plain     mixing
     Exchange-correlation      = SLA PW PBX PBC ( 1  4  3  4 0 0)
     nstep                     =          150


     celldm(1)=   7.257304  celldm(2)=   0.000000  celldm(3)=   0.000000
     celldm(4)=   0.000000  celldm(5)=   0.000000  celldm(6)=   0.000000

     crystal axes: (cart. coord. in units of alat)
               a(1) = (   1.000000   0.000000   0.000000 )  
               a(2) = (  -0.500000   0.866030   0.000000 )  
               a(3) = (   0.000000   0.000000   1.596605 )  

     reciprocal axes: (cart. coord. in units 2 pi/alat)
               b(1) = (  1.000000  0.577347  0.000000 )  
               b(2) = (  0.000000  1.154695  0.000000 )  
               b(3) = (  0.000000  0.000000  0.626329 )  


     PseudoPot. # 1 for Gd read from file:
     /home/shaharpit/AcHProject/meam_fit/dft/qe_potentials/Gd.GGA-PBE-paw-v1.0.UPF
     MD5 check sum: 3e8e0d208da550914ae52eaf991d13de
     Pseudo is Projector augmented-wave + core cor, Zval = 18.0
     Generated using ATOMPAW code
     Shape of augmentation charge: BESSEL
     Using radial grid of 1110 points,  8 beta functions with: 
                l(1) =   0
                l(2) =   0
                l(3) =   1
                l(4) =   1
                l(5) =   2
                l(6) =   2
                l(7) =   3
                l(8) =   3
     Q(r) pseudized with 0 coefficients 


     atomic species   valence    mass     pseudopotential
        Gd            18.00   157.25000     Gd( 1.00)

      4 Sym. Ops., with inversion, found ( 2 have fractional translation)



   Cartesian axes

     site n.     atom                  positions (alat units)
         1           Gd  tau(   1) = (   0.5000500   0.2886477   1.1974534  )
         2           Gd  tau(   2) = (  -0.0000500   0.5773819   0.3991511  )

     number of k points=    30  gaussian smearing, width (Ry)=  0.0100
                       cart. coord. in units 2pi/alat
        k(    1) = (   0.0000000   0.0000000   0.0000000), wk =   0.0312500
        k(    2) = (   0.0000000   0.0000000   0.1565823), wk =   0.0625000
        k(    3) = (   0.0000000   0.0000000  -0.3131646), wk =   0.0312500
        k(    4) = (   0.0000000   0.2886737   0.0000000), wk =   0.0625000
        k(    5) = (   0.0000000   0.2886737   0.1565823), wk =   0.1250000
        k(    6) = (   0.0000000   0.2886737  -0.3131646), wk =   0.0625000
        k(    7) = (   0.0000000  -0.5773475   0.0000000), wk =   0.0312500
        k(    8) = (   0.0000000  -0.5773475   0.1565823), wk =   0.0625000
        k(    9) = (   0.0000000  -0.5773475  -0.3131646), wk =   0.0312500
        k(   10) = (   0.2500000   0.1443369   0.0000000), wk =   0.0625000
        k(   11) = (   0.2500000   0.1443369   0.1565823), wk =   0.1250000
        k(   12) = (   0.2500000   0.1443369  -0.3131646), wk =   0.0625000
        k(   13) = (   0.2500000   0.4330106   0.0000000), wk =   0.0625000
        k(   14) = (   0.2500000   0.4330106   0.1565823), wk =   0.1250000
        k(   15) = (   0.2500000   0.4330106  -0.3131646), wk =   0.0625000
        k(   16) = (  -0.5000000  -0.2886737   0.0000000), wk =   0.0312500
        k(   17) = (  -0.5000000  -0.2886737   0.1565823), wk =   0.0625000
        k(   18) = (  -0.5000000  -0.2886737  -0.3131646), wk =   0.0312500
        k(   19) = (  -0.5000000   0.0000000   0.0000000), wk =   0.0625000
        k(   20) = (  -0.5000000   0.0000000   0.1565823), wk =   0.1250000
        k(   21) = (  -0.5000000   0.0000000  -0.3131646), wk =   0.0625000
        k(   22) = (  -0.2500000   0.1443369   0.0000000), wk =   0.0625000
        k(   23) = (  -0.2500000   0.1443369  -0.1565823), wk =   0.1250000
        k(   24) = (  -0.2500000   0.1443369   0.3131646), wk =   0.0625000
        k(   25) = (  -0.2500000   0.4330106   0.0000000), wk =   0.0625000
        k(   26) = (  -0.2500000   0.4330106  -0.1565823), wk =   0.1250000
        k(   27) = (  -0.2500000   0.4330106   0.3131646), wk =   0.0625000
        k(   28) = (   0.5000000  -0.2886737   0.0000000), wk =   0.0312500
        k(   29) = (   0.5000000  -0.2886737  -0.1565823), wk =   0.0625000
        k(   30) = (   0.5000000  -0.2886737   0.3131646), wk =   0.0312500

     Dense  grid:    25313 G-vectors     FFT dimensions: (  36,  36,  54)

     Estimated max dynamical RAM per process >      59.59MB

     Subspace diagonalization in iterative solution of the eigenvalue problem:
     a serial algorithm will be used

 
     G-vector sticks info
     --------------------
     sticks:   dense  smooth     PW     G-vecs:    dense   smooth      PW
     Sum         733     733    211                25313    25313    3995
 


     bravais-lattice index     =            0
     lattice parameter (alat)  =       7.2573  a.u.
     unit-cell volume          =     528.5135 (a.u.)^3
     number of atoms/cell      =            2
     number of atomic types    =            1
     number of electrons       =        36.00
     number of Kohn-Sham states=           22
     kinetic-energy cutoff     =      50.0000  Ry
     charge density cutoff     =     200.0000  Ry
     convergence threshold     =      1.0E-06
     mixing beta               =       0.7000
     number of iterations used =            8  plain     mixing
     Exchange-correlation      = SLA PW PBX PBC ( 1  4  3  4 0 0)
     nstep                     =          150


     celldm(1)=   7.257304  celldm(2)=   0.000000  celldm(3)=   0.000000
     celldm(4)=   0.000000  celldm(5)=   0.000000  celldm(6)=   0.000000

     crystal axes: (cart. coord. in units of alat)
               a(1) = (   1.000000   0.000000   0.000000 )  
               a(2) = (  -0.500000   0.866030   0.000000 )  
               a(3) = (   0.000000   0.000000   1.596605 )  

     reciprocal axes: (cart. coord. in units 2 pi/alat)
               b(1) = (  1.000000  0.577347  0.000000 )  
               b(2) = (  0.000000  1.154695  0.000000 )  
               b(3) = (  0.000000  0.000000  0.626329 )  


     PseudoPot. # 1 for Gd read from file:
     /home/shaharpit/AcHProject/meam_fit/dft/qe_potentials/Gd.GGA-PBE-paw-v1.0.UPF
     MD5 check sum: 3e8e0d208da550914ae52eaf991d13de
     Pseudo is Projector augmented-wave + core cor, Zval = 18.0
     Generated using ATOMPAW code
     Shape of augmentation charge: BESSEL
     Using radial grid of 1110 points,  8 beta functions with: 
                l(1) =   0
                l(2) =   0
                l(3) =   1
                l(4) =   1
                l(5) =   2
                l(6) =   2
                l(7) =   3
                l(8) =   3
     Q(r) pseudized with 0 coefficients 


     atomic species   valence    mass     pseudopotential
        Gd            18.00   157.25000     Gd( 1.00)

      4 Sym. Ops., with inversion, found ( 2 have fractional translation)



   Cartesian axes

     site n.     atom                  positions (alat units)
         1           Gd  tau(   1) = (   0.5000500   0.2886477   1.1974534  )
         2           Gd  tau(   2) = (  -0.0000500   0.5773819   0.3991511  )

     number of k points=    30  gaussian smearing, width (Ry)=  0.0100
                       cart. coord. in units 2pi/alat
        k(    1) = (   0.0000000   0.0000000   0.0000000), wk =   0.0312500
        k(    2) = (   0.0000000   0.0000000   0.1565823), wk =   0.0625000
        k(    3) = (   0.0000000   0.0000000  -0.3131646), wk =   0.0312500
        k(    4) = (   0.0000000   0.2886737   0.0000000), wk =   0.0625000
        k(    5) = (   0.0000000   0.2886737   0.1565823), wk =   0.1250000
        k(    6) = (   0.0000000   0.2886737  -0.3131646), wk =   0.0625000
        k(    7) = (   0.0000000  -0.5773475   0.0000000), wk =   0.0312500
        k(    8) = (   0.0000000  -0.5773475   0.1565823), wk =   0.0625000
        k(    9) = (   0.0000000  -0.5773475  -0.3131646), wk =   0.0312500
        k(   10) = (   0.2500000   0.1443369   0.0000000), wk =   0.0625000
        k(   11) = (   0.2500000   0.1443369   0.1565823), wk =   0.1250000
        k(   12) = (   0.2500000   0.1443369  -0.3131646), wk =   0.0625000
        k(   13) = (   0.2500000   0.4330106   0.0000000), wk =   0.0625000
        k(   14) = (   0.2500000   0.4330106   0.1565823), wk =   0.1250000
        k(   15) = (   0.2500000   0.4330106  -0.3131646), wk =   0.0625000
        k(   16) = (  -0.5000000  -0.2886737   0.0000000), wk =   0.0312500
        k(   17) = (  -0.5000000  -0.2886737   0.1565823), wk =   0.0625000
        k(   18) = (  -0.5000000  -0.2886737  -0.3131646), wk =   0.0312500
        k(   19) = (  -0.5000000   0.0000000   0.0000000), wk =   0.0625000
        k(   20) = (  -0.5000000   0.0000000   0.1565823), wk =   0.1250000
        k(   21) = (  -0.5000000   0.0000000  -0.3131646), wk =   0.0625000
        k(   22) = (  -0.2500000   0.1443369   0.0000000), wk =   0.0625000
        k(   23) = (  -0.2500000   0.1443369  -0.1565823), wk =   0.1250000
        k(   24) = (  -0.2500000   0.1443369   0.3131646), wk =   0.0625000
        k(   25) = (  -0.2500000   0.4330106   0.0000000), wk =   0.0625000
        k(   26) = (  -0.2500000   0.4330106  -0.1565823), wk =   0.1250000
        k(   27) = (  -0.2500000   0.4330106   0.3131646), wk =   0.0625000
        k(   28) = (   0.5000000  -0.2886737   0.0000000), wk =   0.0312500
        k(   29) = (   0.5000000  -0.2886737  -0.1565823), wk =   0.0625000
        k(   30) = (   0.5000000  -0.2886737   0.3131646), wk =   0.0312500

     Dense  grid:    25313 G-vectors     FFT dimensions: (  36,  36,  54)

     Estimated max dynamical RAM per process >      59.59MB
               file Gd.GGA-PBE-paw-v1.0.UPF: wavefunction(s)  Xn Xn Xn Xn Xn Xn renormalized

     Subspace diagonalization in iterative solution of the eigenvalue problem:
     a serial algorithm will be used

 
     G-vector sticks info
     --------------------
     sticks:   dense  smooth     PW     G-vecs:    dense   smooth      PW
     Sum         733     733    211                25313    25313    3995
 


     bravais-lattice index     =            0
     lattice parameter (alat)  =       7.2573  a.u.
     unit-cell volume          =     528.5135 (a.u.)^3
     number of atoms/cell      =            2
     number of atomic types    =            1
     number of electrons       =        36.00
     number of Kohn-Sham states=           22
     kinetic-energy cutoff     =      50.0000  Ry
     charge density cutoff     =     200.0000  Ry
     convergence threshold     =      1.0E-06
     mixing beta               =       0.7000
     number of iterations used =            8  plain     mixing
     Exchange-correlation      = SLA PW PBX PBC ( 1  4  3  4 0 0)
     nstep                     =          150


     celldm(1)=   7.257304  celldm(2)=   0.000000  celldm(3)=   0.000000
     celldm(4)=   0.000000  celldm(5)=   0.000000  celldm(6)=   0.000000

     crystal axes: (cart. coord. in units of alat)
               a(1) = (   1.000000   0.000000   0.000000 )  
               a(2) = (  -0.500000   0.866030   0.000000 )  
               a(3) = (   0.000000   0.000000   1.596605 )  

     reciprocal axes: (cart. coord. in units 2 pi/alat)
               b(1) = (  1.000000  0.577347  0.000000 )  
               b(2) = (  0.000000  1.154695  0.000000 )  
               b(3) = (  0.000000  0.000000  0.626329 )  


     PseudoPot. # 1 for Gd read from file:
     /home/shaharpit/AcHProject/meam_fit/dft/qe_potentials/Gd.GGA-PBE-paw-v1.0.UPF
     MD5 check sum: 3e8e0d208da550914ae52eaf991d13de
     Pseudo is Projector augmented-wave + core cor, Zval = 18.0
     Generated using ATOMPAW code
     Shape of augmentation charge: BESSEL
     Using radial grid of 1110 points,  8 beta functions with: 
                l(1) =   0
                l(2) =   0
                l(3) =   1
                l(4) =   1
                l(5) =   2
                l(6) =   2
                l(7) =   3
                l(8) =   3
     Q(r) pseudized with 0 coefficients 


     atomic species   valence    mass     pseudopotential
        Gd            18.00   157.25000     Gd( 1.00)

      4 Sym. Ops., with inversion, found ( 2 have fractional translation)



   Cartesian axes

     site n.     atom                  positions (alat units)
         1           Gd  tau(   1) = (   0.5000500   0.2886477   1.1974534  )
         2           Gd  tau(   2) = (  -0.0000500   0.5773819   0.3991511  )

     number of k points=    30  gaussian smearing, width (Ry)=  0.0100
                       cart. coord. in units 2pi/alat
        k(    1) = (   0.0000000   0.0000000   0.0000000), wk =   0.0312500
        k(    2) = (   0.0000000   0.0000000   0.1565823), wk =   0.0625000
        k(    3) = (   0.0000000   0.0000000  -0.3131646), wk =   0.0312500
        k(    4) = (   0.0000000   0.2886737   0.0000000), wk =   0.0625000
        k(    5) = (   0.0000000   0.2886737   0.1565823), wk =   0.1250000
        k(    6) = (   0.0000000   0.2886737  -0.3131646), wk =   0.0625000
        k(    7) = (   0.0000000  -0.5773475   0.0000000), wk =   0.0312500
        k(    8) = (   0.0000000  -0.5773475   0.1565823), wk =   0.0625000
        k(    9) = (   0.0000000  -0.5773475  -0.3131646), wk =   0.0312500
        k(   10) = (   0.2500000   0.1443369   0.0000000), wk =   0.0625000
        k(   11) = (   0.2500000   0.1443369   0.1565823), wk =   0.1250000
        k(   12) = (   0.2500000   0.1443369  -0.3131646), wk =   0.0625000
        k(   13) = (   0.2500000   0.4330106   0.0000000), wk =   0.0625000
        k(   14) = (   0.2500000   0.4330106   0.1565823), wk =   0.1250000
        k(   15) = (   0.2500000   0.4330106  -0.3131646), wk =   0.0625000
        k(   16) = (  -0.5000000  -0.2886737   0.0000000), wk =   0.0312500
        k(   17) = (  -0.5000000  -0.2886737   0.1565823), wk =   0.0625000
        k(   18) = (  -0.5000000  -0.2886737  -0.3131646), wk =   0.0312500
        k(   19) = (  -0.5000000   0.0000000   0.0000000), wk =   0.0625000
        k(   20) = (  -0.5000000   0.0000000   0.1565823), wk =   0.1250000
        k(   21) = (  -0.5000000   0.0000000  -0.3131646), wk =   0.0625000
        k(   22) = (  -0.2500000   0.1443369   0.0000000), wk =   0.0625000
        k(   23) = (  -0.2500000   0.1443369  -0.1565823), wk =   0.1250000
        k(   24) = (  -0.2500000   0.1443369   0.3131646), wk =   0.0625000
        k(   25) = (  -0.2500000   0.4330106   0.0000000), wk =   0.0625000
        k(   26) = (  -0.2500000   0.4330106  -0.1565823), wk =   0.1250000
        k(   27) = (  -0.2500000   0.4330106   0.3131646), wk =   0.0625000
        k(   28) = (   0.5000000  -0.2886737   0.0000000), wk =   0.0312500
        k(   29) = (   0.5000000  -0.2886737  -0.1565823), wk =   0.0625000
        k(   30) = (   0.5000000  -0.2886737   0.3131646), wk =   0.0312500

     Dense  grid:    25313 G-vectors     FFT dimensions: (  36,  36,  54)

     Estimated max dynamical RAM per process >      59.59MB
               file Gd.GGA-PBE-paw-v1.0.UPF: wavefunction(s)  Xn Xn Xn Xn Xn Xn renormalized
               file Gd.GGA-PBE-paw-v1.0.UPF: wavefunction(s)  Xn Xn Xn Xn Xn Xn renormalized

     Subspace diagonalization in iterative solution of the eigenvalue problem:
     a serial algorithm will be used

 
     G-vector sticks info
     --------------------
     sticks:   dense  smooth     PW     G-vecs:    dense   smooth      PW
     Sum         733     733    211                25313    25313    3995
 


     bravais-lattice index     =            0
     lattice parameter (alat)  =       7.2573  a.u.
     unit-cell volume          =     528.5135 (a.u.)^3
     number of atoms/cell      =            2
     number of atomic types    =            1
     number of electrons       =        36.00
     number of Kohn-Sham states=           22
     kinetic-energy cutoff     =      50.0000  Ry
     charge density cutoff     =     200.0000  Ry
     convergence threshold     =      1.0E-06
     mixing beta               =       0.7000
     number of iterations used =            8  plain     mixing
     Exchange-correlation      = SLA PW PBX PBC ( 1  4  3  4 0 0)
     nstep                     =          150


     celldm(1)=   7.257304  celldm(2)=   0.000000  celldm(3)=   0.000000
     celldm(4)=   0.000000  celldm(5)=   0.000000  celldm(6)=   0.000000

     crystal axes: (cart. coord. in units of alat)
               a(1) = (   1.000000   0.000000   0.000000 )  
               a(2) = (  -0.500000   0.866030   0.000000 )  
               a(3) = (   0.000000   0.000000   1.596605 )  

     reciprocal axes: (cart. coord. in units 2 pi/alat)
               b(1) = (  1.000000  0.577347  0.000000 )  
               b(2) = (  0.000000  1.154695  0.000000 )  
               b(3) = (  0.000000  0.000000  0.626329 )  


     PseudoPot. # 1 for Gd read from file:
     /home/shaharpit/AcHProject/meam_fit/dft/qe_potentials/Gd.GGA-PBE-paw-v1.0.UPF
     MD5 check sum: 3e8e0d208da550914ae52eaf991d13de
     Pseudo is Projector augmented-wave + core cor, Zval = 18.0
     Generated using ATOMPAW code
     Shape of augmentation charge: BESSEL
     Using radial grid of 1110 points,  8 beta functions with: 
                l(1) =   0
                l(2) =   0
                l(3) =   1
                l(4) =   1
                l(5) =   2
                l(6) =   2
                l(7) =   3
                l(8) =   3
     Q(r) pseudized with 0 coefficients 


     atomic species   valence    mass     pseudopotential
        Gd            18.00   157.25000     Gd( 1.00)

      4 Sym. Ops., with inversion, found ( 2 have fractional translation)



   Cartesian axes

     site n.     atom                  positions (alat units)
         1           Gd  tau(   1) = (   0.5000500   0.2886477   1.1974534  )
         2           Gd  tau(   2) = (  -0.0000500   0.5773819   0.3991511  )

     number of k points=    30  gaussian smearing, width (Ry)=  0.0100
                       cart. coord. in units 2pi/alat
        k(    1) = (   0.0000000   0.0000000   0.0000000), wk =   0.0312500
        k(    2) = (   0.0000000   0.0000000   0.1565823), wk =   0.0625000
        k(    3) = (   0.0000000   0.0000000  -0.3131646), wk =   0.0312500
        k(    4) = (   0.0000000   0.2886737   0.0000000), wk =   0.0625000
        k(    5) = (   0.0000000   0.2886737   0.1565823), wk =   0.1250000
        k(    6) = (   0.0000000   0.2886737  -0.3131646), wk =   0.0625000
        k(    7) = (   0.0000000  -0.5773475   0.0000000), wk =   0.0312500
        k(    8) = (   0.0000000  -0.5773475   0.1565823), wk =   0.0625000
        k(    9) = (   0.0000000  -0.5773475  -0.3131646), wk =   0.0312500
        k(   10) = (   0.2500000   0.1443369   0.0000000), wk =   0.0625000
        k(   11) = (   0.2500000   0.1443369   0.1565823), wk =   0.1250000
        k(   12) = (   0.2500000   0.1443369  -0.3131646), wk =   0.0625000
        k(   13) = (   0.2500000   0.4330106   0.0000000), wk =   0.0625000
        k(   14) = (   0.2500000   0.4330106   0.1565823), wk =   0.1250000
        k(   15) = (   0.2500000   0.4330106  -0.3131646), wk =   0.0625000
        k(   16) = (  -0.5000000  -0.2886737   0.0000000), wk =   0.0312500
        k(   17) = (  -0.5000000  -0.2886737   0.1565823), wk =   0.0625000
        k(   18) = (  -0.5000000  -0.2886737  -0.3131646), wk =   0.0312500
        k(   19) = (  -0.5000000   0.0000000   0.0000000), wk =   0.0625000
        k(   20) = (  -0.5000000   0.0000000   0.1565823), wk =   0.1250000
        k(   21) = (  -0.5000000   0.0000000  -0.3131646), wk =   0.0625000
        k(   22) = (  -0.2500000   0.1443369   0.0000000), wk =   0.0625000
        k(   23) = (  -0.2500000   0.1443369  -0.1565823), wk =   0.1250000
        k(   24) = (  -0.2500000   0.1443369   0.3131646), wk =   0.0625000
        k(   25) = (  -0.2500000   0.4330106   0.0000000), wk =   0.0625000
        k(   26) = (  -0.2500000   0.4330106  -0.1565823), wk =   0.1250000
        k(   27) = (  -0.2500000   0.4330106   0.3131646), wk =   0.0625000
        k(   28) = (   0.5000000  -0.2886737   0.0000000), wk =   0.0312500
        k(   29) = (   0.5000000  -0.2886737  -0.1565823), wk =   0.0625000
        k(   30) = (   0.5000000  -0.2886737   0.3131646), wk =   0.0312500

     Dense  grid:    25313 G-vectors     FFT dimensions: (  36,  36,  54)

     Estimated max dynamical RAM per process >      59.59MB

     Subspace diagonalization in iterative solution of the eigenvalue problem:
     a serial algorithm will be used

 
     G-vector sticks info
     --------------------
     sticks:   dense  smooth     PW     G-vecs:    dense   smooth      PW
     Sum         733     733    211                25313    25313    3995
 


     bravais-lattice index     =            0
     lattice parameter (alat)  =       7.2573  a.u.
     unit-cell volume          =     528.5135 (a.u.)^3
     number of atoms/cell      =            2
     number of atomic types    =            1
     number of electrons       =        36.00
     number of Kohn-Sham states=           22
     kinetic-energy cutoff     =      50.0000  Ry
     charge density cutoff     =     200.0000  Ry
     convergence threshold     =      1.0E-06
     mixing beta               =       0.7000
     number of iterations used =            8  plain     mixing
     Exchange-correlation      = SLA PW PBX PBC ( 1  4  3  4 0 0)
     nstep                     =          150


     celldm(1)=   7.257304  celldm(2)=   0.000000  celldm(3)=   0.000000
     celldm(4)=   0.000000  celldm(5)=   0.000000  celldm(6)=   0.000000

     crystal axes: (cart. coord. in units of alat)
               a(1) = (   1.000000   0.000000   0.000000 )  
               a(2) = (  -0.500000   0.866030   0.000000 )  
               a(3) = (   0.000000   0.000000   1.596605 )  

     reciprocal axes: (cart. coord. in units 2 pi/alat)
               b(1) = (  1.000000  0.577347  0.000000 )  
               b(2) = (  0.000000  1.154695  0.000000 )  
               b(3) = (  0.000000  0.000000  0.626329 )  


     PseudoPot. # 1 for Gd read from file:
     /home/shaharpit/AcHProject/meam_fit/dft/qe_potentials/Gd.GGA-PBE-paw-v1.0.UPF
     MD5 check sum: 3e8e0d208da550914ae52eaf991d13de
     Pseudo is Projector augmented-wave + core cor, Zval = 18.0
     Generated using ATOMPAW code
     Shape of augmentation charge: BESSEL
     Using radial grid of 1110 points,  8 beta functions with: 
                l(1) =   0
                l(2) =   0
                l(3) =   1
                l(4) =   1
                l(5) =   2
                l(6) =   2
                l(7) =   3
                l(8) =   3
     Q(r) pseudized with 0 coefficients 


     atomic species   valence    mass     pseudopotential
        Gd            18.00   157.25000     Gd( 1.00)

      4 Sym. Ops., with inversion, found ( 2 have fractional translation)



   Cartesian axes

     site n.     atom                  positions (alat units)
         1           Gd  tau(   1) = (   0.5000500   0.2886477   1.1974534  )
         2           Gd  tau(   2) = (  -0.0000500   0.5773819   0.3991511  )

     number of k points=    30  gaussian smearing, width (Ry)=  0.0100
                       cart. coord. in units 2pi/alat
        k(    1) = (   0.0000000   0.0000000   0.0000000), wk =   0.0312500
        k(    2) = (   0.0000000   0.0000000   0.1565823), wk =   0.0625000
        k(    3) = (   0.0000000   0.0000000  -0.3131646), wk =   0.0312500
        k(    4) = (   0.0000000   0.2886737   0.0000000), wk =   0.0625000
        k(    5) = (   0.0000000   0.2886737   0.1565823), wk =   0.1250000
        k(    6) = (   0.0000000   0.2886737  -0.3131646), wk =   0.0625000
        k(    7) = (   0.0000000  -0.5773475   0.0000000), wk =   0.0312500
        k(    8) = (   0.0000000  -0.5773475   0.1565823), wk =   0.0625000
        k(    9) = (   0.0000000  -0.5773475  -0.3131646), wk =   0.0312500
        k(   10) = (   0.2500000   0.1443369   0.0000000), wk =   0.0625000
        k(   11) = (   0.2500000   0.1443369   0.1565823), wk =   0.1250000
        k(   12) = (   0.2500000   0.1443369  -0.3131646), wk =   0.0625000
        k(   13) = (   0.2500000   0.4330106   0.0000000), wk =   0.0625000
        k(   14) = (   0.2500000   0.4330106   0.1565823), wk =   0.1250000
        k(   15) = (   0.2500000   0.4330106  -0.3131646), wk =   0.0625000
        k(   16) = (  -0.5000000  -0.2886737   0.0000000), wk =   0.0312500
        k(   17) = (  -0.5000000  -0.2886737   0.1565823), wk =   0.0625000
        k(   18) = (  -0.5000000  -0.2886737  -0.3131646), wk =   0.0312500
        k(   19) = (  -0.5000000   0.0000000   0.0000000), wk =   0.0625000
        k(   20) = (  -0.5000000   0.0000000   0.1565823), wk =   0.1250000
        k(   21) = (  -0.5000000   0.0000000  -0.3131646), wk =   0.0625000
        k(   22) = (  -0.2500000   0.1443369   0.0000000), wk =   0.0625000
        k(   23) = (  -0.2500000   0.1443369  -0.1565823), wk =   0.1250000
        k(   24) = (  -0.2500000   0.1443369   0.3131646), wk =   0.0625000
        k(   25) = (  -0.2500000   0.4330106   0.0000000), wk =   0.0625000
        k(   26) = (  -0.2500000   0.4330106  -0.1565823), wk =   0.1250000
        k(   27) = (  -0.2500000   0.4330106   0.3131646), wk =   0.0625000
        k(   28) = (   0.5000000  -0.2886737   0.0000000), wk =   0.0312500
        k(   29) = (   0.5000000  -0.2886737  -0.1565823), wk =   0.0625000
        k(   30) = (   0.5000000  -0.2886737   0.3131646), wk =   0.0312500

     Dense  grid:    25313 G-vectors     FFT dimensions: (  36,  36,  54)

     Estimated max dynamical RAM per process >      59.59MB
               file Gd.GGA-PBE-paw-v1.0.UPF: wavefunction(s)  Xn Xn Xn Xn Xn Xn renormalized

     Subspace diagonalization in iterative solution of the eigenvalue problem:
     a serial algorithm will be used

 
     G-vector sticks info
     --------------------
     sticks:   dense  smooth     PW     G-vecs:    dense   smooth      PW
     Sum         733     733    211                25313    25313    3995
 


     bravais-lattice index     =            0
     lattice parameter (alat)  =       7.2573  a.u.
     unit-cell volume          =     528.5135 (a.u.)^3
     number of atoms/cell      =            2
     number of atomic types    =            1
     number of electrons       =        36.00
     number of Kohn-Sham states=           22
     kinetic-energy cutoff     =      50.0000  Ry
     charge density cutoff     =     200.0000  Ry
     convergence threshold     =      1.0E-06
     mixing beta               =       0.7000
     number of iterations used =            8  plain     mixing
     Exchange-correlation      = SLA PW PBX PBC ( 1  4  3  4 0 0)
     nstep                     =          150


     celldm(1)=   7.257304  celldm(2)=   0.000000  celldm(3)=   0.000000
     celldm(4)=   0.000000  celldm(5)=   0.000000  celldm(6)=   0.000000

     crystal axes: (cart. coord. in units of alat)
               a(1) = (   1.000000   0.000000   0.000000 )  
               a(2) = (  -0.500000   0.866030   0.000000 )  
               a(3) = (   0.000000   0.000000   1.596605 )  

     reciprocal axes: (cart. coord. in units 2 pi/alat)
               b(1) = (  1.000000  0.577347  0.000000 )  
               b(2) = (  0.000000  1.154695  0.000000 )  
               b(3) = (  0.000000  0.000000  0.626329 )  


     PseudoPot. # 1 for Gd read from file:
     /home/shaharpit/AcHProject/meam_fit/dft/qe_potentials/Gd.GGA-PBE-paw-v1.0.UPF
     MD5 check sum: 3e8e0d208da550914ae52eaf991d13de
     Pseudo is Projector augmented-wave + core cor, Zval = 18.0
     Generated using ATOMPAW code
     Shape of augmentation charge: BESSEL
     Using radial grid of 1110 points,  8 beta functions with: 
                l(1) =   0
                l(2) =   0
                l(3) =   1
                l(4) =   1
                l(5) =   2
                l(6) =   2
                l(7) =   3
                l(8) =   3
     Q(r) pseudized with 0 coefficients 


     atomic species   valence    mass     pseudopotential
        Gd            18.00   157.25000     Gd( 1.00)

      4 Sym. Ops., with inversion, found ( 2 have fractional translation)



   Cartesian axes

     site n.     atom                  positions (alat units)
         1           Gd  tau(   1) = (   0.5000500   0.2886477   1.1974534  )
         2           Gd  tau(   2) = (  -0.0000500   0.5773819   0.3991511  )

     number of k points=    30  gaussian smearing, width (Ry)=  0.0100
                       cart. coord. in units 2pi/alat
        k(    1) = (   0.0000000   0.0000000   0.0000000), wk =   0.0312500
        k(    2) = (   0.0000000   0.0000000   0.1565823), wk =   0.0625000
        k(    3) = (   0.0000000   0.0000000  -0.3131646), wk =   0.0312500
        k(    4) = (   0.0000000   0.2886737   0.0000000), wk =   0.0625000
        k(    5) = (   0.0000000   0.2886737   0.1565823), wk =   0.1250000
        k(    6) = (   0.0000000   0.2886737  -0.3131646), wk =   0.0625000
        k(    7) = (   0.0000000  -0.5773475   0.0000000), wk =   0.0312500
        k(    8) = (   0.0000000  -0.5773475   0.1565823), wk =   0.0625000
        k(    9) = (   0.0000000  -0.5773475  -0.3131646), wk =   0.0312500
        k(   10) = (   0.2500000   0.1443369   0.0000000), wk =   0.0625000
        k(   11) = (   0.2500000   0.1443369   0.1565823), wk =   0.1250000
        k(   12) = (   0.2500000   0.1443369  -0.3131646), wk =   0.0625000
        k(   13) = (   0.2500000   0.4330106   0.0000000), wk =   0.0625000
        k(   14) = (   0.2500000   0.4330106   0.1565823), wk =   0.1250000
        k(   15) = (   0.2500000   0.4330106  -0.3131646), wk =   0.0625000
        k(   16) = (  -0.5000000  -0.2886737   0.0000000), wk =   0.0312500
        k(   17) = (  -0.5000000  -0.2886737   0.1565823), wk =   0.0625000
        k(   18) = (  -0.5000000  -0.2886737  -0.3131646), wk =   0.0312500
        k(   19) = (  -0.5000000   0.0000000   0.0000000), wk =   0.0625000
        k(   20) = (  -0.5000000   0.0000000   0.1565823), wk =   0.1250000
        k(   21) = (  -0.5000000   0.0000000  -0.3131646), wk =   0.0625000
        k(   22) = (  -0.2500000   0.1443369   0.0000000), wk =   0.0625000
        k(   23) = (  -0.2500000   0.1443369  -0.1565823), wk =   0.1250000
        k(   24) = (  -0.2500000   0.1443369   0.3131646), wk =   0.0625000
        k(   25) = (  -0.2500000   0.4330106   0.0000000), wk =   0.0625000
        k(   26) = (  -0.2500000   0.4330106  -0.1565823), wk =   0.1250000
        k(   27) = (  -0.2500000   0.4330106   0.3131646), wk =   0.0625000
        k(   28) = (   0.5000000  -0.2886737   0.0000000), wk =   0.0312500
        k(   29) = (   0.5000000  -0.2886737  -0.1565823), wk =   0.0625000
        k(   30) = (   0.5000000  -0.2886737   0.3131646), wk =   0.0312500

     Dense  grid:    25313 G-vectors     FFT dimensions: (  36,  36,  54)

     Estimated max dynamical RAM per process >      59.59MB
               file Gd.GGA-PBE-paw-v1.0.UPF: wavefunction(s)  Xn Xn Xn Xn Xn Xn renormalized

     Subspace diagonalization in iterative solution of the eigenvalue problem:
     a serial algorithm will be used

 
     G-vector sticks info
     --------------------
     sticks:   dense  smooth     PW     G-vecs:    dense   smooth      PW
     Sum         733     733    211                25313    25313    3995
 


     bravais-lattice index     =            0
     lattice parameter (alat)  =       7.2573  a.u.
     unit-cell volume          =     528.5135 (a.u.)^3
     number of atoms/cell      =            2
     number of atomic types    =            1
     number of electrons       =        36.00
     number of Kohn-Sham states=           22
     kinetic-energy cutoff     =      50.0000  Ry
     charge density cutoff     =     200.0000  Ry
     convergence threshold     =      1.0E-06
     mixing beta               =       0.7000
     number of iterations used =            8  plain     mixing
     Exchange-correlation      = SLA PW PBX PBC ( 1  4  3  4 0 0)
     nstep                     =          150


     celldm(1)=   7.257304  celldm(2)=   0.000000  celldm(3)=   0.000000
     celldm(4)=   0.000000  celldm(5)=   0.000000  celldm(6)=   0.000000

     crystal axes: (cart. coord. in units of alat)
               a(1) = (   1.000000   0.000000   0.000000 )  
               a(2) = (  -0.500000   0.866030   0.000000 )  
               a(3) = (   0.000000   0.000000   1.596605 )  

     reciprocal axes: (cart. coord. in units 2 pi/alat)
               b(1) = (  1.000000  0.577347  0.000000 )  
               b(2) = (  0.000000  1.154695  0.000000 )  
               b(3) = (  0.000000  0.000000  0.626329 )  


     PseudoPot. # 1 for Gd read from file:
     /home/shaharpit/AcHProject/meam_fit/dft/qe_potentials/Gd.GGA-PBE-paw-v1.0.UPF
     MD5 check sum: 3e8e0d208da550914ae52eaf991d13de
     Pseudo is Projector augmented-wave + core cor, Zval = 18.0
     Generated using ATOMPAW code
     Shape of augmentation charge: BESSEL
     Using radial grid of 1110 points,  8 beta functions with: 
                l(1) =   0
                l(2) =   0
                l(3) =   1
                l(4) =   1
                l(5) =   2
                l(6) =   2
                l(7) =   3
                l(8) =   3
     Q(r) pseudized with 0 coefficients 


     atomic species   valence    mass     pseudopotential
        Gd            18.00   157.25000     Gd( 1.00)

      4 Sym. Ops., with inversion, found ( 2 have fractional translation)



   Cartesian axes

     site n.     atom                  positions (alat units)
         1           Gd  tau(   1) = (   0.5000500   0.2886477   1.1974534  )
         2           Gd  tau(   2) = (  -0.0000500   0.5773819   0.3991511  )

     number of k points=    30  gaussian smearing, width (Ry)=  0.0100
                       cart. coord. in units 2pi/alat
        k(    1) = (   0.0000000   0.0000000   0.0000000), wk =   0.0312500
        k(    2) = (   0.0000000   0.0000000   0.1565823), wk =   0.0625000
        k(    3) = (   0.0000000   0.0000000  -0.3131646), wk =   0.0312500
        k(    4) = (   0.0000000   0.2886737   0.0000000), wk =   0.0625000
        k(    5) = (   0.0000000   0.2886737   0.1565823), wk =   0.1250000
        k(    6) = (   0.0000000   0.2886737  -0.3131646), wk =   0.0625000
        k(    7) = (   0.0000000  -0.5773475   0.0000000), wk =   0.0312500
        k(    8) = (   0.0000000  -0.5773475   0.1565823), wk =   0.0625000
        k(    9) = (   0.0000000  -0.5773475  -0.3131646), wk =   0.0312500
        k(   10) = (   0.2500000   0.1443369   0.0000000), wk =   0.0625000
        k(   11) = (   0.2500000   0.1443369   0.1565823), wk =   0.1250000
        k(   12) = (   0.2500000   0.1443369  -0.3131646), wk =   0.0625000
        k(   13) = (   0.2500000   0.4330106   0.0000000), wk =   0.0625000
        k(   14) = (   0.2500000   0.4330106   0.1565823), wk =   0.1250000
        k(   15) = (   0.2500000   0.4330106  -0.3131646), wk =   0.0625000
        k(   16) = (  -0.5000000  -0.2886737   0.0000000), wk =   0.0312500
        k(   17) = (  -0.5000000  -0.2886737   0.1565823), wk =   0.0625000
        k(   18) = (  -0.5000000  -0.2886737  -0.3131646), wk =   0.0312500
        k(   19) = (  -0.5000000   0.0000000   0.0000000), wk =   0.0625000
        k(   20) = (  -0.5000000   0.0000000   0.1565823), wk =   0.1250000
        k(   21) = (  -0.5000000   0.0000000  -0.3131646), wk =   0.0625000
        k(   22) = (  -0.2500000   0.1443369   0.0000000), wk =   0.0625000
        k(   23) = (  -0.2500000   0.1443369  -0.1565823), wk =   0.1250000
        k(   24) = (  -0.2500000   0.1443369   0.3131646), wk =   0.0625000
        k(   25) = (  -0.2500000   0.4330106   0.0000000), wk =   0.0625000
        k(   26) = (  -0.2500000   0.4330106  -0.1565823), wk =   0.1250000
        k(   27) = (  -0.2500000   0.4330106   0.3131646), wk =   0.0625000
        k(   28) = (   0.5000000  -0.2886737   0.0000000), wk =   0.0312500
        k(   29) = (   0.5000000  -0.2886737  -0.1565823), wk =   0.0625000
        k(   30) = (   0.5000000  -0.2886737   0.3131646), wk =   0.0312500

     Dense  grid:    25313 G-vectors     FFT dimensions: (  36,  36,  54)

     Estimated max dynamical RAM per process >      59.59MB
               file Gd.GGA-PBE-paw-v1.0.UPF: wavefunction(s)  Xn Xn Xn Xn Xn Xn renormalized

     Subspace diagonalization in iterative solution of the eigenvalue problem:
     a serial algorithm will be used

 
     G-vector sticks info
     --------------------
     sticks:   dense  smooth     PW     G-vecs:    dense   smooth      PW
     Sum         733     733    211                25313    25313    3995
 


     bravais-lattice index     =            0
     lattice parameter (alat)  =       7.2573  a.u.
     unit-cell volume          =     528.5135 (a.u.)^3
     number of atoms/cell      =            2
     number of atomic types    =            1
     number of electrons       =        36.00
     number of Kohn-Sham states=           22
     kinetic-energy cutoff     =      50.0000  Ry
     charge density cutoff     =     200.0000  Ry
     convergence threshold     =      1.0E-06
     mixing beta               =       0.7000
     number of iterations used =            8  plain     mixing
     Exchange-correlation      = SLA PW PBX PBC ( 1  4  3  4 0 0)
     nstep                     =          150


     celldm(1)=   7.257304  celldm(2)=   0.000000  celldm(3)=   0.000000
     celldm(4)=   0.000000  celldm(5)=   0.000000  celldm(6)=   0.000000

     crystal axes: (cart. coord. in units of alat)
               a(1) = (   1.000000   0.000000   0.000000 )  
               a(2) = (  -0.500000   0.866030   0.000000 )  
               a(3) = (   0.000000   0.000000   1.596605 )  

     reciprocal axes: (cart. coord. in units 2 pi/alat)
               b(1) = (  1.000000  0.577347  0.000000 )  
               b(2) = (  0.000000  1.154695  0.000000 )  
               b(3) = (  0.000000  0.000000  0.626329 )  


     PseudoPot. # 1 for Gd read from file:
     /home/shaharpit/AcHProject/meam_fit/dft/qe_potentials/Gd.GGA-PBE-paw-v1.0.UPF
     MD5 check sum: 3e8e0d208da550914ae52eaf991d13de
     Pseudo is Projector augmented-wave + core cor, Zval = 18.0
     Generated using ATOMPAW code
     Shape of augmentation charge: BESSEL
     Using radial grid of 1110 points,  8 beta functions with: 
                l(1) =   0
                l(2) =   0
                l(3) =   1
                l(4) =   1
                l(5) =   2
                l(6) =   2
                l(7) =   3
                l(8) =   3
     Q(r) pseudized with 0 coefficients 


     atomic species   valence    mass     pseudopotential
        Gd            18.00   157.25000     Gd( 1.00)

      4 Sym. Ops., with inversion, found ( 2 have fractional translation)



   Cartesian axes

     site n.     atom                  positions (alat units)
         1           Gd  tau(   1) = (   0.5000500   0.2886477   1.1974534  )
         2           Gd  tau(   2) = (  -0.0000500   0.5773819   0.3991511  )

     number of k points=    30  gaussian smearing, width (Ry)=  0.0100
                       cart. coord. in units 2pi/alat
        k(    1) = (   0.0000000   0.0000000   0.0000000), wk =   0.0312500
        k(    2) = (   0.0000000   0.0000000   0.1565823), wk =   0.0625000
        k(    3) = (   0.0000000   0.0000000  -0.3131646), wk =   0.0312500
        k(    4) = (   0.0000000   0.2886737   0.0000000), wk =   0.0625000
        k(    5) = (   0.0000000   0.2886737   0.1565823), wk =   0.1250000
        k(    6) = (   0.0000000   0.2886737  -0.3131646), wk =   0.0625000
        k(    7) = (   0.0000000  -0.5773475   0.0000000), wk =   0.0312500
        k(    8) = (   0.0000000  -0.5773475   0.1565823), wk =   0.0625000
        k(    9) = (   0.0000000  -0.5773475  -0.3131646), wk =   0.0312500
        k(   10) = (   0.2500000   0.1443369   0.0000000), wk =   0.0625000
        k(   11) = (   0.2500000   0.1443369   0.1565823), wk =   0.1250000
        k(   12) = (   0.2500000   0.1443369  -0.3131646), wk =   0.0625000
        k(   13) = (   0.2500000   0.4330106   0.0000000), wk =   0.0625000
        k(   14) = (   0.2500000   0.4330106   0.1565823), wk =   0.1250000
        k(   15) = (   0.2500000   0.4330106  -0.3131646), wk =   0.0625000
        k(   16) = (  -0.5000000  -0.2886737   0.0000000), wk =   0.0312500
        k(   17) = (  -0.5000000  -0.2886737   0.1565823), wk =   0.0625000
        k(   18) = (  -0.5000000  -0.2886737  -0.3131646), wk =   0.0312500
        k(   19) = (  -0.5000000   0.0000000   0.0000000), wk =   0.0625000
        k(   20) = (  -0.5000000   0.0000000   0.1565823), wk =   0.1250000
        k(   21) = (  -0.5000000   0.0000000  -0.3131646), wk =   0.0625000
        k(   22) = (  -0.2500000   0.1443369   0.0000000), wk =   0.0625000
        k(   23) = (  -0.2500000   0.1443369  -0.1565823), wk =   0.1250000
        k(   24) = (  -0.2500000   0.1443369   0.3131646), wk =   0.0625000
        k(   25) = (  -0.2500000   0.4330106   0.0000000), wk =   0.0625000
        k(   26) = (  -0.2500000   0.4330106  -0.1565823), wk =   0.1250000
        k(   27) = (  -0.2500000   0.4330106   0.3131646), wk =   0.0625000
        k(   28) = (   0.5000000  -0.2886737   0.0000000), wk =   0.0312500
        k(   29) = (   0.5000000  -0.2886737  -0.1565823), wk =   0.0625000
        k(   30) = (   0.5000000  -0.2886737   0.3131646), wk =   0.0312500

     Dense  grid:    25313 G-vectors     FFT dimensions: (  36,  36,  54)

     Estimated max dynamical RAM per process >      59.59MB
               file Gd.GGA-PBE-paw-v1.0.UPF: wavefunction(s)  Xn Xn Xn Xn Xn Xn renormalized

     Subspace diagonalization in iterative solution of the eigenvalue problem:
     a serial algorithm will be used

               file Gd.GGA-PBE-paw-v1.0.UPF: wavefunction(s)  Xn Xn Xn Xn Xn Xn renormalized

     Subspace diagonalization in iterative solution of the eigenvalue problem:
     a serial algorithm will be used

 
     G-vector sticks info
     --------------------
     sticks:   dense  smooth     PW     G-vecs:    dense   smooth      PW
     Sum         733     733    211                25313    25313    3995
 


     bravais-lattice index     =            0
     lattice parameter (alat)  =       7.2573  a.u.
     unit-cell volume          =     528.5135 (a.u.)^3
     number of atoms/cell      =            2
     number of atomic types    =            1
     number of electrons       =        36.00
     number of Kohn-Sham states=           22
     kinetic-energy cutoff     =      50.0000  Ry
     charge density cutoff     =     200.0000  Ry
     convergence threshold     =      1.0E-06
     mixing beta               =       0.7000
     number of iterations used =            8  plain     mixing
     Exchange-correlation      = SLA PW PBX PBC ( 1  4  3  4 0 0)
     nstep                     =          150


     celldm(1)=   7.257304  celldm(2)=   0.000000  celldm(3)=   0.000000
     celldm(4)=   0.000000  celldm(5)=   0.000000  celldm(6)=   0.000000

     crystal axes: (cart. coord. in units of alat)
               a(1) = (   1.000000   0.000000   0.000000 )  
               a(2) = (  -0.500000   0.866030   0.000000 )  
               a(3) = (   0.000000   0.000000   1.596605 )  

     reciprocal axes: (cart. coord. in units 2 pi/alat)
               b(1) = (  1.000000  0.577347  0.000000 )  
               b(2) = (  0.000000  1.154695  0.000000 )  
               b(3) = (  0.000000  0.000000  0.626329 )  


     PseudoPot. # 1 for Gd read from file:
     /home/shaharpit/AcHProject/meam_fit/dft/qe_potentials/Gd.GGA-PBE-paw-v1.0.UPF
     MD5 check sum: 3e8e0d208da550914ae52eaf991d13de
[...]

          k = 0.0000 0.2887 0.0000 (  3158 PWs)   bands (ev):

   -32.6425 -32.6126 -10.8474 -10.6946 -10.6213 -10.5721 -10.4690 -10.4606
     6.8845   9.3023   9.6694   9.7269   9.7271   9.7794   9.7903   9.8258
     9.8542   9.8643   9.8838   9.8921   9.9089   9.9121

          k = 0.0000 0.2887 0.1566 (  3155 PWs)   bands (ev):

   -32.6382 -32.6170 -10.8290 -10.6781 -10.6381 -10.5571 -10.4842 -10.4807
     7.1813   8.9606   9.6409   9.6710   9.7575   9.7807   9.7909   9.8075
     9.8254   9.8646   9.8762   9.8913   9.9060   9.9105

          k = 0.0000 0.2887-0.3132 (  3160 PWs)   bands (ev):

   -32.6276 -32.6276 -10.7636 -10.7636 -10.5504 -10.5504 -10.5209 -10.5209
     7.9866   7.9866   9.6576   9.6576   9.7710   9.7710   9.7997   9.7997
     9.8156   9.8156   9.8975   9.8975   9.9051   9.9051

          k = 0.0000-0.5773 0.0000 (  3154 PWs)   bands (ev):

   -32.6232 -32.6100 -10.8724 -10.7867 -10.7145 -10.6241 -10.5464 -10.4993
     8.6166   9.1784   9.4822   9.7724   9.7819   9.7870   9.7900   9.7903
     9.8181   9.8324   9.8546   9.8641   9.8937   9.9404

          k = 0.0000-0.5773 0.1566 (  3156 PWs)   bands (ev):

   -32.6212 -32.6119 -10.9065 -10.8385 -10.6416 -10.6061 -10.5300 -10.5179
     8.5242   9.0663   9.6854   9.7587   9.7754   9.7823   9.7903   9.7978
     9.8141   9.8196   9.8523   9.8953   9.8960   9.9167

          k = 0.0000-0.5773-0.3132 (  3176 PWs)   bands (ev):

   -32.6166 -32.6166 -10.9044 -10.9044 -10.5623 -10.5623 -10.5522 -10.5522
     8.6882   8.6882   9.7357   9.7357   9.7779   9.7779   9.8056   9.8056
     9.8075   9.8075   9.8617   9.8617   9.9236   9.9236

          k = 0.2500 0.1443 0.0000 (  3158 PWs)   bands (ev):

   -32.6425 -32.6126 -10.8474 -10.6946 -10.6214 -10.5720 -10.4689 -10.4606
     6.8845   9.3021   9.6691   9.7248   9.7260   9.7782   9.7928   9.8234
     9.8543   9.8673   9.8866   9.8891   9.9084   9.9115

          k = 0.2500 0.1443 0.1566 (  3155 PWs)   bands (ev):

   -32.6382 -32.6170 -10.8291 -10.6782 -10.6381 -10.5571 -10.4842 -10.4807
     7.1813   8.9605   9.6405   9.6706   9.7554   9.7789   9.7933   9.8055
     9.8269   9.8614   9.8789   9.8905   9.9075   9.9101

          k = 0.2500 0.1443-0.3132 (  3160 PWs)   bands (ev):

   -32.6276 -32.6276 -10.7636 -10.7636 -10.5505 -10.5505 -10.5208 -10.5208
     7.9866   7.9866   9.6572   9.6572   9.7687   9.7687   9.8019   9.8019
     9.8135   9.8135   9.8984   9.8984   9.9045   9.9045

          k = 0.2500 0.4330 0.0000 (  3148 PWs)   bands (ev):

   -32.6233 -32.6099 -10.7969 -10.7598 -10.7163 -10.6545 -10.5781 -10.5446
     8.6492   9.5310   9.7045   9.7229   9.7573   9.7728   9.7789   9.8100
     9.8370   9.8451   9.8777   9.8819   9.9189   9.9536

          k = 0.2500 0.4330 0.1566 (  3160 PWs)   bands (ev):

   -32.6213 -32.6119 -10.8290 -10.8110 -10.6805 -10.6355 -10.5798 -10.5116
     8.7593   9.4163   9.6967   9.7081   9.7611   9.7623   9.7876   9.8094
     9.8151   9.8399   9.8550   9.8677   9.9080   9.9328

          k = 0.2500 0.4330-0.3132 (  3160 PWs)   bands (ev):

   -32.6166 -32.6166 -10.8464 -10.8464 -10.6578 -10.6578 -10.5182 -10.5182
     9.0756   9.0756   9.6898   9.6898   9.7680   9.7680   9.7948   9.7948
     9.8228   9.8228   9.8479   9.8479   9.9129   9.9129

          k =-0.5000-0.2887 0.0000 (  3154 PWs)   bands (ev):

   -32.6232 -32.6100 -10.8724 -10.7868 -10.7145 -10.6240 -10.5464 -10.4993
     8.6166   9.1782   9.4816   9.7698   9.7838   9.7847   9.7875   9.7903
     9.8171   9.8303   9.8542   9.8645   9.8968   9.9380

          k =-0.5000-0.2887 0.1566 (  3156 PWs)   bands (ev):

   -32.6212 -32.6119 -10.9065 -10.8386 -10.6416 -10.6060 -10.5300 -10.5178
     8.5242   9.0662   9.6833   9.7563   9.7729   9.7795   9.7924   9.7968
     9.8136   9.8194   9.8524   9.8960   9.8988   9.9200

          k =-0.5000-0.2887-0.3132 (  3176 PWs)   bands (ev):

   -32.6166 -32.6166 -10.9044 -10.9044 -10.5622 -10.5622 -10.5522 -10.5522
     8.6882   8.6882   9.7321   9.7321   9.7752   9.7752   9.8060   9.8060
     9.8080   9.8080   9.8636   9.8636   9.9266   9.9266

          k =-0.5000 0.0000 0.0000 (  3150 PWs)   bands (ev):

   -32.6233 -32.6099 -10.7968 -10.7596 -10.7164 -10.6546 -10.5783 -10.5444
     8.6491   9.5304   9.7046   9.7233   9.7566   9.7724   9.7782   9.8102
     9.8368   9.8456   9.8786   9.8817   9.9194   9.9537

          k =-0.5000 0.0000 0.1566 (  3160 PWs)   bands (ev):

   -32.6213 -32.6118 -10.8289 -10.8108 -10.6807 -10.6356 -10.5799 -10.5115
     8.7593   9.4164   9.6967   9.7082   9.7603   9.7611   9.7869   9.8095
     9.8142   9.8405   9.8553   9.8679   9.9081   9.9329

          k =-0.5000 0.0000-0.3132 (  3160 PWs)   bands (ev):

   -32.6166 -32.6166 -10.8463 -10.8463 -10.6579 -10.6579 -10.5182 -10.5182
     9.0757   9.0757   9.6894   9.6894   9.7668   9.7668   9.7943   9.7943
     9.8229   9.8229   9.8485   9.8485   9.9129   9.9129

          k =-0.2500 0.1443 0.0000 (  3158 PWs)   bands (ev):

   -32.6425 -32.6126 -10.8474 -10.6944 -10.6212 -10.5723 -10.4691 -10.4605
     6.8844   9.3022   9.6691   9.7253   9.7272   9.7786   9.7899   9.8261
     9.8533   9.8666   9.8859   9.8910   9.9101   9.9114

          k =-0.2500 0.1443-0.1566 (  3155 PWs)   bands (ev):

   -32.6382 -32.6170 -10.8290 -10.6780 -10.6380 -10.5573 -10.4844 -10.4807
     7.1812   8.9605   9.6406   9.6707   9.7570   9.7797   9.7907   9.8077
     9.8255   9.8634   9.8779   9.8916   9.9070   9.9102

          k =-0.2500 0.1443 0.3132 (  3160 PWs)   bands (ev):

   -32.6276 -32.6276 -10.7635 -10.7635 -10.5504 -10.5504 -10.5210 -10.5210
     7.9867   7.9867   9.6575   9.6575   9.7704   9.7704   9.7999   9.7999
     9.8148   9.8148   9.8977   9.8977   9.9049   9.9049

          k =-0.2500 0.4330 0.0000 (  3148 PWs)   bands (ev):

   -32.6233 -32.6099 -10.7968 -10.7596 -10.7164 -10.6547 -10.5783 -10.5444
     8.6491   9.5312   9.7053   9.7235   9.7558   9.7733   9.7801   9.8112
     9.8379   9.8442   9.8765   9.8805   9.9192   9.9520

          k =-0.2500 0.4330-0.1566 (  3160 PWs)   bands (ev):

   -32.6213 -32.6118 -10.8289 -10.8107 -10.6807 -10.6356 -10.5800 -10.5115
     8.7593   9.4163   9.6976   9.7092   9.7600   9.7620   9.7884   9.8104
     9.8165   9.8395   9.8539   9.8671   9.9088   9.9317

          k =-0.2500 0.4330 0.3132 (  3160 PWs)   bands (ev):

   -32.6166 -32.6166 -10.8462 -10.8462 -10.6579 -10.6579 -10.5182 -10.5182
     9.0756   9.0756   9.6908   9.6908   9.7671   9.7671   9.7962   9.7962
     9.8227   9.8227   9.8476   9.8476   9.9128   9.9128

          k = 0.5000-0.2887 0.0000 (  3154 PWs)   bands (ev):

   -32.6232 -32.6099 -10.8722 -10.7865 -10.7147 -10.6243 -10.5462 -10.4995
     8.6161   9.1785   9.4812   9.7720   9.7817   9.7861   9.7894   9.7907
     9.8170   9.8302   9.8546   9.8651   9.8961   9.9372

          k = 0.5000-0.2887-0.1566 (  3156 PWs)   bands (ev):

   -32.6213 -32.6119 -10.9064 -10.8383 -10.6417 -10.6063 -10.5299 -10.5180
     8.5240   9.0667   9.6844   9.7577   9.7744   9.7819   9.7897   9.7972
     9.8133   9.8195   9.8523   9.8956   9.8975   9.9180

          k = 0.5000-0.2887 0.3132 (  3176 PWs)   bands (ev):

   -32.6166 -32.6166 -10.9042 -10.9042 -10.5624 -10.5624 -10.5522 -10.5522
     8.6884   8.6884   9.7342   9.7342   9.7773   9.7773   9.8050   9.8050
     9.8077   9.8077   9.8623   9.8623   9.9252   9.9252

     the Fermi energy is     9.8679 ev

!    total energy              =   -1366.89674168 Ry
     Harris-Foulkes estimate   =   -1366.89674109 Ry
     estimated scf accuracy    <       0.00000098 Ry

     total all-electron energy =     -1366.896742 Ry

     The total energy is the sum of the following terms:

     one-electron contribution =    -240.15234235 Ry
     hartree contribution      =     141.49894289 Ry
     xc contribution           =     -45.00505045 Ry
     ewald contribution        =    -291.62234973 Ry
     one-center paw contrib.   =    -931.56690932 Ry
     smearing contrib. (-TS)   =      -0.04903273 Ry

     convergence has been achieved in 432 iterations
     ethr =  3.30E-09,  avg # of iterations =  3.2
     c_bands:  2 eigenvalues not converged

     total cpu time spent up to now is     4427.1 secs

     total energy              =   -1366.89673933 Ry
     Harris-Foulkes estimate   =   -1366.89673758 Ry
     estimated scf accuracy    <       0.00000346 Ry

     iteration #432     ecut=    50.00 Ry     beta=0.70
     Davidson diagonalization with overlap
     c_bands:  1 eigenvalues not converged

     total cpu time spent up to now is     4427.4 secs

     End of self-consistent calculation

          k = 0.0000 0.0000 0.0000 (  3141 PWs)   bands (ev):

   -32.6586 -32.6184 -10.9373 -10.5163 -10.5160 -10.4416 -10.4414 -10.4172
     5.7257   8.4302   9.6625   9.7150   9.8015   9.8025   9.8051   9.8235
     9.8270   9.8596   9.8632   9.8800   9.8835   9.8838

          k = 0.0000 0.0000 0.1566 (  3158 PWs)   bands (ev):

   -32.6527 -32.6243 -10.8650 -10.5054 -10.5051 -10.4976 -10.4526 -10.4524
     6.0955   8.0699   9.6651   9.6748   9.7836   9.7868   9.8061   9.8143
     9.8175   9.8597   9.8649   9.8680   9.9206   9.9238

          k = 0.0000 0.0000-0.3132 (  3182 PWs)   bands (ev):

   -32.6385 -32.6385 -10.6853 -10.6853 -10.4791 -10.4791 -10.4788 -10.4788
     7.0542   7.0542   9.6608   9.6608   9.7846   9.7846   9.7877   9.7877
     9.8242   9.8242   9.9157   9.9157   9.9189   9.9189

          k = 0.0000 0.2887 0.0000 (  3158 PWs)   bands (ev):

   -32.6425 -32.6126 -10.8474 -10.6946 -10.6213 -10.5721 -10.4690 -10.4606
     6.8845   9.3023   9.6694   9.7269   9.7271   9.7794   9.7903   9.8258
     9.8542   9.8643   9.8838   9.8921   9.9089   9.9121

          k = 0.0000 0.2887 0.1566 (  3155 PWs)   bands (ev):

   -32.6382 -32.6170 -10.8290 -10.6781 -10.6381 -10.5571 -10.4842 -10.4807
     7.1813   8.9606   9.6409   9.6710   9.7575   9.7807   9.7909   9.8075
     9.8254   9.8646   9.8762   9.8913   9.9060   9.9105

          k = 0.0000 0.2887-0.3132 (  3160 PWs)   bands (ev):

   -32.6276 -32.6276 -10.7636 -10.7636 -10.5504 -10.5504 -10.5209 -10.5209
     7.9866   7.9866   9.6576   9.6576   9.7710   9.7710   9.7997   9.7997
     9.8156   9.8156   9.8975   9.8975   9.9051   9.9051

          k = 0.0000-0.5773 0.0000 (  3154 PWs)   bands (ev):

   -32.6232 -32.6100 -10.8724 -10.7867 -10.7145 -10.6241 -10.5464 -10.4993
     8.6166   9.1784   9.4822   9.7724   9.7819   9.7870   9.7900   9.7903
     9.8181   9.8324   9.8546   9.8641   9.8937   9.9404

          k = 0.0000-0.5773 0.1566 (  3156 PWs)   bands (ev):

   -32.6212 -32.6119 -10.9065 -10.8385 -10.6416 -10.6061 -10.5300 -10.5179
     8.5242   9.0663   9.6854   9.7587   9.7754   9.7823   9.7903   9.7978
     9.8141   9.8196   9.8523   9.8953   9.8960   9.9167

          k = 0.0000-0.5773-0.3132 (  3176 PWs)   bands (ev):

   -32.6166 -32.6166 -10.9044 -10.9044 -10.5623 -10.5623 -10.5522 -10.5522
     8.6882   8.6882   9.7357   9.7357   9.7779   9.7779   9.8056   9.8056
     9.8075   9.8075   9.8617   9.8617   9.9236   9.9236

          k = 0.2500 0.1443 0.0000 (  3158 PWs)   bands (ev):

   -32.6425 -32.6126 -10.8474 -10.6946 -10.6214 -10.5720 -10.4689 -10.4606
     6.8845   9.3021   9.6691   9.7248   9.7260   9.7782   9.7928   9.8234
     9.8543   9.8673   9.8866   9.8891   9.9084   9.9115

          k = 0.2500 0.1443 0.1566 (  3155 PWs)   bands (ev):

   -32.6382 -32.6170 -10.8291 -10.6782 -10.6381 -10.5571 -10.4842 -10.4807
     7.1813   8.9605   9.6405   9.6706   9.7554   9.7789   9.7933   9.8055
     9.8269   9.8614   9.8789   9.8905   9.9075   9.9101

          k = 0.2500 0.1443-0.3132 (  3160 PWs)   bands (ev):

   -32.6276 -32.6276 -10.7636 -10.7636 -10.5505 -10.5505 -10.5208 -10.5208
     7.9866   7.9866   9.6572   9.6572   9.7687   9.7687   9.8019   9.8019
     9.8135   9.8135   9.8984   9.8984   9.9045   9.9045

          k = 0.2500 0.4330 0.0000 (  3148 PWs)   bands (ev):

   -32.6233 -32.6099 -10.7969 -10.7598 -10.7163 -10.6545 -10.5781 -10.5446
     8.6492   9.5310   9.7045   9.7229   9.7573   9.7728   9.7789   9.8100
     9.8370   9.8451   9.8777   9.8819   9.9189   9.9536

          k = 0.2500 0.4330 0.1566 (  3160 PWs)   bands (ev):

   -32.6213 -32.6119 -10.8290 -10.8110 -10.6805 -10.6355 -10.5798 -10.5116
     8.7593   9.4163   9.6967   9.7081   9.7611   9.7623   9.7876   9.8094
     9.8151   9.8399   9.8550   9.8677   9.9080   9.9328

          k = 0.2500 0.4330-0.3132 (  3160 PWs)   bands (ev):

   -32.6166 -32.6166 -10.8464 -10.8464 -10.6578 -10.6578 -10.5182 -10.5182
     9.0756   9.0756   9.6898   9.6898   9.7680   9.7680   9.7948   9.7948
     9.8228   9.8228   9.8479   9.8479   9.9129   9.9129

          k =-0.5000-0.2887 0.0000 (  3154 PWs)   bands (ev):

   -32.6232 -32.6100 -10.8724 -10.7868 -10.7145 -10.6240 -10.5464 -10.4993
     8.6166   9.1782   9.4816   9.7698   9.7838   9.7847   9.7875   9.7903
     9.8171   9.8303   9.8542   9.8645   9.8968   9.9380

          k =-0.5000-0.2887 0.1566 (  3156 PWs)   bands (ev):

   -32.6212 -32.6119 -10.9065 -10.8386 -10.6416 -10.6060 -10.5300 -10.5178
     8.5242   9.0662   9.6833   9.7563   9.7729   9.7795   9.7924   9.7968
     9.8136   9.8194   9.8524   9.8960   9.8988   9.9200

          k =-0.5000-0.2887-0.3132 (  3176 PWs)   bands (ev):

   -32.6166 -32.6166 -10.9044 -10.9044 -10.5622 -10.5622 -10.5522 -10.5522
     8.6882   8.6882   9.7321   9.7321   9.7752   9.7752   9.8060   9.8060
     9.8080   9.8080   9.8636   9.8636   9.9266   9.9266

          k =-0.5000 0.0000 0.0000 (  3150 PWs)   bands (ev):

   -32.6233 -32.6099 -10.7968 -10.7596 -10.7164 -10.6546 -10.5783 -10.5444
     8.6491   9.5304   9.7046   9.7233   9.7566   9.7724   9.7782   9.8102
     9.8368   9.8456   9.8786   9.8817   9.9194   9.9537

          k =-0.5000 0.0000 0.1566 (  3160 PWs)   bands (ev):

   -32.6213 -32.6118 -10.8289 -10.8108 -10.6807 -10.6356 -10.5799 -10.5115
     8.7593   9.4164   9.6967   9.7082   9.7603   9.7611   9.7869   9.8095
     9.8142   9.8405   9.8553   9.8679   9.9081   9.9329

          k =-0.5000 0.0000-0.3132 (  3160 PWs)   bands (ev):

   -32.6166 -32.6166 -10.8463 -10.8463 -10.6579 -10.6579 -10.5182 -10.5182
     9.0757   9.0757   9.6894   9.6894   9.7668   9.7668   9.7943   9.7943
     9.8229   9.8229   9.8485   9.8485   9.9129   9.9129

          k =-0.2500 0.1443 0.0000 (  3158 PWs)   bands (ev):

   -32.6425 -32.6126 -10.8474 -10.6944 -10.6212 -10.5723 -10.4691 -10.4605
     6.8844   9.3022   9.6691   9.7253   9.7272   9.7786   9.7899   9.8261
     9.8533   9.8666   9.8859   9.8910   9.9101   9.9114

          k =-0.2500 0.1443-0.1566 (  3155 PWs)   bands (ev):

   -32.6382 -32.6170 -10.8290 -10.6780 -10.6380 -10.5573 -10.4844 -10.4807
     7.1812   8.9605   9.6406   9.6707   9.7570   9.7797   9.7907   9.8077
     9.8255   9.8634   9.8779   9.8916   9.9070   9.9102

          k =-0.2500 0.1443 0.3132 (  3160 PWs)   bands (ev):

   -32.6276 -32.6276 -10.7635 -10.7635 -10.5504 -10.5504 -10.5210 -10.5210
     7.9867   7.9867   9.6575   9.6575   9.7704   9.7704   9.7999   9.7999
     9.8148   9.8148   9.8977   9.8977   9.9049   9.9049

          k =-0.2500 0.4330 0.0000 (  3148 PWs)   bands (ev):

   -32.6233 -32.6099 -10.7968 -10.7596 -10.7164 -10.6547 -10.5783 -10.5444
     8.6491   9.5312   9.7053   9.7235   9.7558   9.7733   9.7801   9.8112
     9.8379   9.8442   9.8765   9.8805   9.9192   9.9520

          k =-0.2500 0.4330-0.1566 (  3160 PWs)   bands (ev):

   -32.6213 -32.6118 -10.8289 -10.8107 -10.6807 -10.6356 -10.5800 -10.5115
     8.7593   9.4163   9.6976   9.7092   9.7600   9.7620   9.7884   9.8104
     9.8165   9.8395   9.8539   9.8671   9.9088   9.9317

          k =-0.2500 0.4330 0.3132 (  3160 PWs)   bands (ev):

   -32.6166 -32.6166 -10.8462 -10.8462 -10.6579 -10.6579 -10.5182 -10.5182
     9.0756   9.0756   9.6908   9.6908   9.7671   9.7671   9.7962   9.7962
     9.8227   9.8227   9.8476   9.8476   9.9128   9.9128

          k = 0.5000-0.2887 0.0000 (  3154 PWs)   bands (ev):

   -32.6232 -32.6099 -10.8722 -10.7865 -10.7147 -10.6243 -10.5462 -10.4995
     8.6161   9.1785   9.4812   9.7720   9.7817   9.7861   9.7894   9.7907
     9.8170   9.8302   9.8546   9.8651   9.8961   9.9372

          k = 0.5000-0.2887-0.1566 (  3156 PWs)   bands (ev):

   -32.6213 -32.6119 -10.9064 -10.8383 -10.6417 -10.6063 -10.5299 -10.5180
     8.5240   9.0667   9.6844   9.7577   9.7744   9.7819   9.7897   9.7972
     9.8133   9.8195   9.8523   9.8956   9.8975   9.9180

          k = 0.5000-0.2887 0.3132 (  3176 PWs)   bands (ev):

   -32.6166 -32.6166 -10.9042 -10.9042 -10.5624 -10.5624 -10.5522 -10.5522
     8.6884   8.6884   9.7342   9.7342   9.7773   9.7773   9.8050   9.8050
     9.8077   9.8077   9.8623   9.8623   9.9252   9.9252

     the Fermi energy is     9.8679 ev

!    total energy              =   -1366.89674168 Ry
     Harris-Foulkes estimate   =   -1366.89674109 Ry
     estimated scf accuracy    <       0.00000098 Ry

     total all-electron energy =     -1366.896742 Ry

     The total energy is the sum of the following terms:

     one-electron contribution =    -240.15234235 Ry
     hartree contribution      =     141.49894289 Ry
     xc contribution           =     -45.00505045 Ry
     ewald contribution        =    -291.62234973 Ry
     one-center paw contrib.   =    -931.56690932 Ry
     smearing contrib. (-TS)   =      -0.04903273 Ry

     convergence has been achieved in 432 iterations
     c_bands:  1 eigenvalues not converged
     ethr =  3.30E-09,  avg # of iterations = 10.9
 
     init_run     :      4.81s CPU      9.94s WALL (       1 calls)
     electrons    :   3036.46s CPU   4404.44s WALL (       1 calls)
     forces       :      0.61s CPU      0.69s WALL (       1 calls)

     Called by init_run:
     wfcinit      :      3.16s CPU      6.41s WALL (       1 calls)
     potinit      :      0.89s CPU      1.82s WALL (       1 calls)

     Called by electrons:
     c_bands      :   2278.07s CPU   3225.87s WALL (     432 calls)
     sum_band     :    312.55s CPU    490.44s WALL (     432 calls)
     v_of_rho     :     12.29s CPU     18.07s WALL (     433 calls)
     newd         :     67.20s CPU    135.13s WALL (     433 calls)
     PAW_pot      :    362.90s CPU    529.21s WALL (     433 calls)
     mix_rho      :      3.89s CPU      5.59s WALL (     432 calls)

     Called by c_bands:
     init_us_2    :     35.36s CPU     49.32s WALL (   25980 calls)
     cegterg      :   1945.18s CPU   2742.75s WALL (   12960 calls)

     Called by sum_band:
     sum_band:bec :      0.48s CPU      0.66s WALL (   12960 calls)
     addusdens    :     86.95s CPU    162.63s WALL (     432 calls)

     Called by *egterg:
     h_psi        :   1344.17s CPU   1904.24s WALL (  102804 calls)
     s_psi        :    103.67s CPU    146.37s WALL (  102804 calls)
     g_psi        :     14.03s CPU     19.87s WALL (   89814 calls)
     cdiaghg      :    101.28s CPU    140.60s WALL (  102774 calls)

     Called by h_psi:
     h_psi:pot    :   1327.14s CPU   1879.40s WALL (  102804 calls)
     h_psi:calbec :     88.79s CPU    126.63s WALL (  102804 calls)
     vloc_psi     :   1132.77s CPU   1604.42s WALL (  102804 calls)
     add_vuspsi   :    104.89s CPU    147.62s WALL (  102804 calls)

     General routines
     calbec       :    107.70s CPU    155.97s WALL (  115884 calls)
     fft          :      3.95s CPU      5.58s WALL (    5639 calls)
     fftw         :   1051.29s CPU   1492.90s WALL ( 2297874 calls)
     davcio       :      0.00s CPU      0.03s WALL (      30 calls)
 
     Parallel routines
     fft_scatter  :    140.99s CPU    201.66s WALL ( 2303513 calls)
     c_bands:  1 eigenvalues not converged
     ethr =  3.30E-09,  avg # of iterations = 10.9
 
     PWSCF        :     0h50m CPU        1h13m WALL

 
   This run was terminated on:  13:39:39   3Jul2022            

=------------------------------------------------------------------------------=
   JOB DONE.
=------------------------------------------------------------------------------=
