
     Program PWSCF v.6.1 (svn rev. 13369) starts on 30Nov2022 at 11:36:57 

     This program is part of the open-source Quantum ESPRESSO suite
     for quantum simulation of materials; please cite
         "P. Giannozzi et al., J. Phys.:Condens. Matter 21 395502 (2009);
          URL http://www.quantum-espresso.org", 
     in publications or presentations arising from this work. More details at
     http://www.quantum-espresso.org/quote

     Parallel version (MPI), running on     8 processors
     R & G space division:  proc/nbgrp/npool/nimage =       8
     Reading input from ./Gd_1.2.in
Warning: card &IONS ignored
Warning: card 	ION_DYNAMICS='BFGS', ignored
Warning: card / ignored
Warning: card &CELL ignored
Warning: card / ignored
Warning: card H 1.00794 H.PBE-KJPAW_PSL.0.1.UPF ignored

     Current dimensions of program PWSCF are:
     Max number of different atomic species (ntypx) = 10
     Max number of k-points (npk) =  40000
     Max angular momentum in pseudopotentials (lmaxx) =  3
               file Gd.rel-pbe-spdn-kjpaw_psl.1.0.0.UPF: wavefunction(s)  5P 5P renormalized

     Subspace diagonalization in iterative solution of the eigenvalue problem:
     a serial algorithm will be used

 
     Parallelization info
     --------------------
     sticks:   dense  smooth     PW     G-vecs:    dense   smooth      PW
     Min          91      91     26                 3163     3163     498
     Max          92      92     27                 3166     3166     501
     Sum         733     733    211                25313    25313    3995
 


     bravais-lattice index     =            0
     lattice parameter (alat)  =       7.2573  a.u.
     unit-cell volume          =     528.5135 (a.u.)^3
     number of atoms/cell      =            2
     number of atomic types    =            1
     number of electrons       =        22.00
     number of Kohn-Sham states=           30
     kinetic-energy cutoff     =      50.0000  Ry
     charge density cutoff     =     200.0000  Ry
     convergence threshold     =      1.0E-06
     mixing beta               =       0.7000
     number of iterations used =            8  plain     mixing
     Exchange-correlation      =  SLA  PW   PBX  PBC ( 1  4  3  4 0 0)
     Non magnetic calculation with spin-orbit


     celldm(1)=   7.257304  celldm(2)=   0.000000  celldm(3)=   0.000000
     celldm(4)=   0.000000  celldm(5)=   0.000000  celldm(6)=   0.000000

     crystal axes: (cart. coord. in units of alat)
               a(1) = (   1.000000   0.000000   0.000000 )  
               a(2) = (  -0.500000   0.866030   0.000000 )  
               a(3) = (   0.000000   0.000000   1.596605 )  

     reciprocal axes: (cart. coord. in units 2 pi/alat)
               b(1) = (  1.000000  0.577347  0.000000 )  
               b(2) = (  0.000000  1.154695  0.000000 )  
               b(3) = (  0.000000  0.000000  0.626329 )  


     PseudoPot. # 1 for Gd read from file:
     /home/shaharpit/MeamGdH/dft/qe_potentials/Gd.rel-pbe-spdn-kjpaw_psl.1.0.0.UPF
     MD5 check sum: cf50ec46d1536b4a0251694df1946a53
     Pseudo is Projector augmented-wave + core cor, Zval = 11.0
     Generated using "atomic" code by A. Dal Corso  v.6.2.2
     Shape of augmentation charge: PSQ
     Using radial grid of 1263 points, 10 beta functions with: 
                l(1) =   0
                l(2) =   0
                l(3) =   1
                l(4) =   1
                l(5) =   1
                l(6) =   1
                l(7) =   2
                l(8) =   2
                l(9) =   2
               l(10) =   2
     Q(r) pseudized with 0 coefficients 


     atomic species   valence    mass     pseudopotential
        Gd            11.00   157.25000     Gd( 1.00)

      4 Sym. Ops., with inversion, found ( 2 have fractional translation)



   Cartesian axes

     site n.     atom                  positions (alat units)
         1           Gd  tau(   1) = (   0.5000500   0.2886477   1.1974534  )
         2           Gd  tau(   2) = (  -0.0000500   0.5773819   0.3991511  )

     number of k points=    30  gaussian smearing, width (Ry)=  0.0100
                       cart. coord. in units 2pi/alat
        k(    1) = (   0.0000000   0.0000000   0.0000000), wk =   0.0156250
        k(    2) = (   0.0000000   0.0000000   0.1565823), wk =   0.0312500
        k(    3) = (   0.0000000   0.0000000  -0.3131646), wk =   0.0156250
        k(    4) = (   0.0000000   0.2886737   0.0000000), wk =   0.0312500
        k(    5) = (   0.0000000   0.2886737   0.1565823), wk =   0.0625000
        k(    6) = (   0.0000000   0.2886737  -0.3131646), wk =   0.0312500
        k(    7) = (   0.0000000  -0.5773475   0.0000000), wk =   0.0156250
        k(    8) = (   0.0000000  -0.5773475   0.1565823), wk =   0.0312500
        k(    9) = (   0.0000000  -0.5773475  -0.3131646), wk =   0.0156250
        k(   10) = (   0.2500000   0.1443369   0.0000000), wk =   0.0312500
        k(   11) = (   0.2500000   0.1443369   0.1565823), wk =   0.0625000
        k(   12) = (   0.2500000   0.1443369  -0.3131646), wk =   0.0312500
        k(   13) = (   0.2500000   0.4330106   0.0000000), wk =   0.0312500
        k(   14) = (   0.2500000   0.4330106   0.1565823), wk =   0.0625000
        k(   15) = (   0.2500000   0.4330106  -0.3131646), wk =   0.0312500
        k(   16) = (  -0.5000000  -0.2886737   0.0000000), wk =   0.0156250
        k(   17) = (  -0.5000000  -0.2886737   0.1565823), wk =   0.0312500
        k(   18) = (  -0.5000000  -0.2886737  -0.3131646), wk =   0.0156250
        k(   19) = (  -0.5000000   0.0000000   0.0000000), wk =   0.0312500
        k(   20) = (  -0.5000000   0.0000000   0.1565823), wk =   0.0625000
        k(   21) = (  -0.5000000   0.0000000  -0.3131646), wk =   0.0312500
        k(   22) = (  -0.2500000   0.1443369   0.0000000), wk =   0.0312500
        k(   23) = (  -0.2500000   0.1443369  -0.1565823), wk =   0.0625000
        k(   24) = (  -0.2500000   0.1443369   0.3131646), wk =   0.0312500
        k(   25) = (  -0.2500000   0.4330106   0.0000000), wk =   0.0312500
        k(   26) = (  -0.2500000   0.4330106  -0.1565823), wk =   0.0625000
        k(   27) = (  -0.2500000   0.4330106   0.3131646), wk =   0.0312500
        k(   28) = (   0.5000000  -0.2886737   0.0000000), wk =   0.0156250
        k(   29) = (   0.5000000  -0.2886737  -0.1565823), wk =   0.0312500
        k(   30) = (   0.5000000  -0.2886737   0.3131646), wk =   0.0156250

     Dense  grid:    25313 G-vectors     FFT dimensions: (  36,  36,  54)

     Estimated max dynamical RAM per process >      20.81MB

     Estimated total allocated dynamical RAM >     166.45MB

     Check: negative/imaginary core charge=   -0.000002    0.000000

     Initial potential from superposition of free atoms

     starting charge   21.96191, renormalised to   22.00000
     Starting wfc are   52 randomized atomic wfcs
     Checking if some PAW data can be deallocated... 

     total cpu time spent up to now is        3.5 secs

     per-process dynamical memory:    54.5 Mb

     Self-consistent Calculation

     iteration #  1     ecut=    50.00 Ry     beta=0.70
     Davidson diagonalization with overlap
     ethr =  1.00E-02,  avg # of iterations =  2.0

     Threshold (ethr) on eigenvalues was too large:
     Diagonalizing with lowered threshold

     Davidson diagonalization with overlap
     ethr =  6.34E-05,  avg # of iterations =  2.9

     total cpu time spent up to now is        7.3 secs

     total energy              =   -1119.21242022 Ry
     Harris-Foulkes estimate   =   -1119.22386158 Ry
     estimated scf accuracy    <       0.02094048 Ry

     iteration #  2     ecut=    50.00 Ry     beta=0.70
     Davidson diagonalization with overlap
     ethr =  9.52E-05,  avg # of iterations =  2.0

     total cpu time spent up to now is        9.3 secs

     total energy              =   -1119.21610102 Ry
     Harris-Foulkes estimate   =   -1119.21629261 Ry
     estimated scf accuracy    <       0.00060845 Ry

     iteration #  3     ecut=    50.00 Ry     beta=0.70
     Davidson diagonalization with overlap
     ethr =  2.77E-06,  avg # of iterations =  2.0

     total cpu time spent up to now is       11.5 secs

     total energy              =   -1119.21619086 Ry
     Harris-Foulkes estimate   =   -1119.21618720 Ry
     estimated scf accuracy    <       0.00004335 Ry

     iteration #  4     ecut=    50.00 Ry     beta=0.70
     Davidson diagonalization with overlap
     ethr =  1.97E-07,  avg # of iterations =  2.1

     total cpu time spent up to now is       13.3 secs

     End of self-consistent calculation

          k = 0.0000 0.0000 0.0000 (  3141 PWs)   bands (ev):

   -36.1953 -36.1953 -36.1613 -36.1613 -16.8962 -16.8962 -16.7637 -16.7637
   -12.7207 -12.7207 -12.4492 -12.4492 -12.3745 -12.3745 -12.3543 -12.3543
     3.9507   3.9507   6.5343   6.5343   9.1827   9.1827   9.8243   9.8243
    10.0395  10.0396  10.0474  10.0474  10.3134  10.3135

          k = 0.0000 0.0000 0.1566 (  3158 PWs)   bands (ev):

   -36.1904 -36.1904 -36.1663 -36.1663 -16.8766 -16.8766 -16.7829 -16.7829
   -12.6703 -12.6703 -12.4384 -12.4384 -12.4113 -12.4113 -12.3856 -12.3856
     4.3092   4.3092   6.2076   6.2076   8.9509   8.9509   9.7288   9.7288
     9.7314   9.7314   9.9182   9.9182  10.1002  10.1005

          k = 0.0000 0.0000-0.3132 (  3182 PWs)   bands (ev):

   -36.1784 -36.1784 -36.1784 -36.1784 -16.8295 -16.8295 -16.8295 -16.8295
   -12.5441 -12.5441 -12.5441 -12.5441 -12.4121 -12.4121 -12.4121 -12.4121
     5.2395   5.2395   5.2395   5.2395   9.1451   9.1451   9.1451   9.1451
     9.7924   9.7924   9.7925   9.7930   9.9614   9.9614

          k = 0.0000 0.2887 0.0000 (  3158 PWs)   bands (ev):

   -36.1818 -36.1818 -36.1564 -36.1564 -16.9134 -16.9134 -16.8183 -16.8183
   -12.7054 -12.7054 -12.5440 -12.5440 -12.5157 -12.5157 -12.3980 -12.3980
     5.0755   5.0755   7.4521   7.4521   8.2911   8.2911   8.7304   8.7304
     9.6014   9.6014  10.0289  10.0289  10.2329  10.2330

          k = 0.0000 0.2887 0.1566 (  3155 PWs)   bands (ev):

   -36.1781 -36.1781 -36.1601 -36.1601 -16.8996 -16.8996 -16.8324 -16.8324
   -12.6799 -12.6799 -12.5500 -12.5500 -12.5177 -12.5177 -12.4171 -12.4171
     5.3645   5.3645   7.1103   7.1103   8.1989   8.1989   8.8268   8.8268
     9.4681   9.4682   9.8514   9.8514  10.2969  10.2970

          k = 0.0000 0.2887-0.3132 (  3160 PWs)   bands (ev):

   -36.1691 -36.1691 -36.1691 -36.1691 -16.8661 -16.8661 -16.8661 -16.8661
   -12.6165 -12.6165 -12.6165 -12.6165 -12.4667 -12.4667 -12.4667 -12.4667
     6.1502   6.1502   6.1502   6.1502   8.6300   8.6300   8.6300   8.6300
     9.4344   9.4344   9.4344   9.4344  10.5939  10.5940

          k = 0.0000-0.5773 0.0000 (  3154 PWs)   bands (ev):

   -36.1654 -36.1654 -36.1542 -36.1542 -16.9215 -16.9215 -16.8837 -16.8837
   -12.6852 -12.6852 -12.6844 -12.6844 -12.5919 -12.5919 -12.4523 -12.4523
     6.7317   6.7317   7.2786   7.2786   7.6278   7.6278   8.3549   8.3549
     9.5452   9.5452   9.7180   9.7180  10.1844  10.1844

          k = 0.0000-0.5773 0.1566 (  3156 PWs)   bands (ev):

   -36.1638 -36.1638 -36.1559 -36.1559 -16.9164 -16.9164 -16.8897 -16.8897
   -12.7095 -12.7095 -12.6956 -12.6956 -12.5485 -12.5485 -12.4572 -12.4572
     6.6302   6.6302   7.1969   7.1969   8.0836   8.0836   8.1782   8.1782
     9.7463   9.7463   9.8096   9.8096  10.0928  10.0928

          k = 0.0000-0.5773-0.3132 (  3176 PWs)   bands (ev):

   -36.1598 -36.1598 -36.1598 -36.1598 -16.9036 -16.9036 -16.9036 -16.9036
   -12.7161 -12.7161 -12.7161 -12.7161 -12.4878 -12.4878 -12.4878 -12.4878
     6.7997   6.7997   6.7997   6.7997   8.3894   8.3894   8.3894   8.3894
     9.6551   9.6551   9.6551   9.6551  10.9186  10.9186

          k = 0.2500 0.1443 0.0000 (  3158 PWs)   bands (ev):

   -36.1818 -36.1818 -36.1564 -36.1564 -16.9134 -16.9134 -16.8183 -16.8183
   -12.7054 -12.7054 -12.5440 -12.5440 -12.5157 -12.5157 -12.3980 -12.3980
     5.0756   5.0756   7.4521   7.4521   8.2911   8.2911   8.7304   8.7304
     9.6014   9.6014  10.0289  10.0290  10.2328  10.2329

          k = 0.2500 0.1443 0.1566 (  3155 PWs)   bands (ev):

   -36.1781 -36.1781 -36.1601 -36.1601 -16.8996 -16.8996 -16.8324 -16.8324
   -12.6799 -12.6799 -12.5500 -12.5500 -12.5177 -12.5177 -12.4171 -12.4171
     5.3645   5.3645   7.1103   7.1103   8.1989   8.1989   8.8268   8.8268
     9.4682   9.4682   9.8514   9.8514  10.2969  10.2970

          k = 0.2500 0.1443-0.3132 (  3160 PWs)   bands (ev):

   -36.1691 -36.1691 -36.1691 -36.1691 -16.8661 -16.8661 -16.8661 -16.8661
   -12.6165 -12.6165 -12.6165 -12.6165 -12.4667 -12.4667 -12.4667 -12.4667
     6.1502   6.1502   6.1502   6.1502   8.6300   8.6300   8.6300   8.6300
     9.4344   9.4344   9.4344   9.4345  10.5940  10.5940

          k = 0.2500 0.4330 0.0000 (  3148 PWs)   bands (ev):

   -36.1655 -36.1655 -36.1542 -36.1542 -16.9220 -16.9220 -16.8817 -16.8817
   -12.6719 -12.6719 -12.6515 -12.6515 -12.6047 -12.6047 -12.4918 -12.4918
     6.7900   6.7900   7.8027   7.8027   8.0282   8.0282   8.0902   8.0902
     9.2816   9.2816   9.6650   9.6650   9.9576   9.9576

          k = 0.2500 0.4330 0.1566 (  3160 PWs)   bands (ev):

   -36.1638 -36.1638 -36.1558 -36.1558 -16.9167 -16.9167 -16.8881 -16.8881
   -12.7072 -12.7072 -12.6500 -12.6500 -12.5745 -12.5745 -12.4854 -12.4854
     6.9048   6.9048   7.6119   7.6119   8.1415   8.1415   8.3498   8.3498
     9.1895   9.1895   9.2542   9.2542  10.0366  10.0366

          k = 0.2500 0.4330-0.3132 (  3160 PWs)   bands (ev):

   -36.1598 -36.1598 -36.1598 -36.1598 -16.9038 -16.9038 -16.9019 -16.9019
   -12.7264 -12.7264 -12.6578 -12.6578 -12.5484 -12.5484 -12.4815 -12.4815
     7.2108   7.2108   7.2583   7.2583   8.4394   8.4394   8.4859   8.4860
     8.9355   8.9355   8.9760   8.9760  10.5331  10.5335

          k =-0.5000-0.2887 0.0000 (  3154 PWs)   bands (ev):

   -36.1654 -36.1654 -36.1542 -36.1542 -16.9215 -16.9215 -16.8837 -16.8837
   -12.6852 -12.6852 -12.6844 -12.6844 -12.5919 -12.5919 -12.4523 -12.4523
     6.7317   6.7317   7.2786   7.2786   7.6278   7.6278   8.3550   8.3550
     9.5453   9.5453   9.7180   9.7180  10.1844  10.1844

          k =-0.5000-0.2887 0.1566 (  3156 PWs)   bands (ev):

   -36.1638 -36.1638 -36.1559 -36.1559 -16.9164 -16.9164 -16.8897 -16.8897
   -12.7095 -12.7095 -12.6956 -12.6956 -12.5485 -12.5485 -12.4572 -12.4572
     6.6302   6.6302   7.1969   7.1969   8.0836   8.0836   8.1782   8.1782
     9.7463   9.7463   9.8096   9.8096  10.0928  10.0928

          k =-0.5000-0.2887-0.3132 (  3176 PWs)   bands (ev):

   -36.1598 -36.1598 -36.1598 -36.1598 -16.9036 -16.9036 -16.9036 -16.9036
   -12.7161 -12.7161 -12.7161 -12.7161 -12.4878 -12.4878 -12.4878 -12.4878
     6.7997   6.7997   6.7997   6.7997   8.3894   8.3894   8.3894   8.3894
     9.6551   9.6551   9.6551   9.6551  10.9186  10.9186

          k =-0.5000 0.0000 0.0000 (  3150 PWs)   bands (ev):

   -36.1655 -36.1655 -36.1542 -36.1542 -16.9221 -16.9221 -16.8817 -16.8817
   -12.6719 -12.6719 -12.6515 -12.6515 -12.6048 -12.6048 -12.4917 -12.4917
     6.7899   6.7899   7.8024   7.8024   8.0283   8.0283   8.0901   8.0901
     9.2816   9.2816   9.6653   9.6653   9.9573   9.9573

          k =-0.5000 0.0000 0.1566 (  3160 PWs)   bands (ev):

   -36.1638 -36.1638 -36.1558 -36.1558 -16.9167 -16.9167 -16.8881 -16.8881
   -12.7072 -12.7072 -12.6500 -12.6500 -12.5745 -12.5745 -12.4853 -12.4853
     6.9048   6.9048   7.6119   7.6119   8.1416   8.1416   8.3495   8.3495
     9.1897   9.1897   9.2543   9.2544  10.0364  10.0364

          k =-0.5000 0.0000-0.3132 (  3160 PWs)   bands (ev):

   -36.1598 -36.1598 -36.1598 -36.1598 -16.9038 -16.9038 -16.9019 -16.9019
   -12.7264 -12.7264 -12.6577 -12.6577 -12.5485 -12.5485 -12.4816 -12.4816
     7.2109   7.2109   7.2584   7.2584   8.4395   8.4396   8.4862   8.4862
     8.9353   8.9354   8.9759   8.9759  10.5329  10.5336

          k =-0.2500 0.1443 0.0000 (  3158 PWs)   bands (ev):

   -36.1818 -36.1818 -36.1564 -36.1564 -16.9134 -16.9134 -16.8183 -16.8183
   -12.7054 -12.7054 -12.5441 -12.5441 -12.5157 -12.5157 -12.3980 -12.3980
     5.0755   5.0755   7.4519   7.4519   8.2907   8.2907   8.7306   8.7306
     9.6015   9.6016  10.0298  10.0298  10.2326  10.2327

          k =-0.2500 0.1443-0.1566 (  3155 PWs)   bands (ev):

   -36.1781 -36.1781 -36.1601 -36.1601 -16.8996 -16.8996 -16.8324 -16.8324
   -12.6799 -12.6799 -12.5500 -12.5500 -12.5178 -12.5178 -12.4171 -12.4171
     5.3645   5.3645   7.1101   7.1101   8.1988   8.1988   8.8269   8.8269
     9.4687   9.4687   9.8516   9.8517  10.2968  10.2968

          k =-0.2500 0.1443 0.3132 (  3160 PWs)   bands (ev):

   -36.1691 -36.1691 -36.1691 -36.1691 -16.8661 -16.8661 -16.8661 -16.8661
   -12.6165 -12.6165 -12.6165 -12.6165 -12.4667 -12.4667 -12.4667 -12.4667
     6.1502   6.1502   6.1502   6.1502   8.6300   8.6300   8.6300   8.6300
     9.4346   9.4347   9.4347   9.4347  10.5941  10.5941

          k =-0.2500 0.4330 0.0000 (  3148 PWs)   bands (ev):

   -36.1655 -36.1655 -36.1542 -36.1542 -16.9221 -16.9221 -16.8817 -16.8817
   -12.6719 -12.6719 -12.6515 -12.6515 -12.6048 -12.6048 -12.4917 -12.4917
     6.7899   6.7899   7.8024   7.8024   8.0283   8.0283   8.0901   8.0901
     9.2816   9.2816   9.6653   9.6653   9.9573   9.9573

          k =-0.2500 0.4330-0.1566 (  3160 PWs)   bands (ev):

   -36.1638 -36.1638 -36.1558 -36.1558 -16.9167 -16.9167 -16.8881 -16.8881
   -12.7071 -12.7071 -12.6500 -12.6500 -12.5745 -12.5745 -12.4853 -12.4853
     6.9048   6.9048   7.6119   7.6119   8.1416   8.1416   8.3495   8.3495
     9.1897   9.1897   9.2543   9.2544  10.0364  10.0364

          k =-0.2500 0.4330 0.3132 (  3160 PWs)   bands (ev):

   -36.1598 -36.1598 -36.1598 -36.1598 -16.9038 -16.9038 -16.9019 -16.9019
   -12.7264 -12.7264 -12.6577 -12.6577 -12.5485 -12.5485 -12.4816 -12.4816
     7.2109   7.2109   7.2584   7.2584   8.4396   8.4396   8.4862   8.4862
     8.9353   8.9353   8.9759   8.9759  10.5328  10.5334

          k = 0.5000-0.2887 0.0000 (  3154 PWs)   bands (ev):

   -36.1654 -36.1654 -36.1542 -36.1542 -16.9215 -16.9215 -16.8836 -16.8836
   -12.6852 -12.6852 -12.6843 -12.6843 -12.5920 -12.5920 -12.4522 -12.4522
     6.7312   6.7312   7.2787   7.2787   7.6272   7.6272   8.3551   8.3551
     9.5465   9.5465   9.7178   9.7178  10.1849  10.1849

          k = 0.5000-0.2887-0.1566 (  3156 PWs)   bands (ev):

   -36.1638 -36.1638 -36.1559 -36.1559 -16.9165 -16.9165 -16.8897 -16.8897
   -12.7095 -12.7095 -12.6956 -12.6956 -12.5485 -12.5485 -12.4572 -12.4572
     6.6300   6.6300   7.1972   7.1972   8.0830   8.0830   8.1782   8.1782
     9.7471   9.7471   9.8100   9.8100  10.0927  10.0927

          k = 0.5000-0.2887 0.3132 (  3176 PWs)   bands (ev):

   -36.1598 -36.1598 -36.1598 -36.1598 -16.9036 -16.9036 -16.9036 -16.9036
   -12.7160 -12.7160 -12.7160 -12.7160 -12.4879 -12.4879 -12.4879 -12.4879
     6.8000   6.8000   6.8000   6.8000   8.3891   8.3891   8.3891   8.3891
     9.6553   9.6553   9.6553   9.6554  10.9185  10.9185

     the Fermi energy is     8.3418 ev

!    total energy              =   -1119.21619399 Ry
     Harris-Foulkes estimate   =   -1119.21619386 Ry
     estimated scf accuracy    <       0.00000016 Ry

     total all-electron energy =    -45121.387900 Ry

     The total energy is the sum of the following terms:

     one-electron contribution =     -35.23697071 Ry
     hartree contribution      =      24.36271890 Ry
     xc contribution           =    -125.40697325 Ry
     ewald contribution        =    -108.90834669 Ry
     one-center paw contrib.   =    -874.02324688 Ry
     smearing contrib. (-TS)   =      -0.00337537 Ry

     convergence has been achieved in   4 iterations

     Writing output data file 2346.save
 
     init_run     :      1.18s CPU      1.91s WALL (       1 calls)
     electrons    :      9.62s CPU     18.40s WALL (       1 calls)

     Called by init_run:
     wfcinit      :      0.86s CPU      1.02s WALL (       1 calls)
     potinit      :      0.13s CPU      0.21s WALL (       1 calls)

     Called by electrons:
     c_bands      :      7.36s CPU      7.55s WALL (       5 calls)
     sum_band     :      1.54s CPU      1.59s WALL (       5 calls)
     v_of_rho     :      0.02s CPU      0.03s WALL (       5 calls)
     newd         :      0.29s CPU      0.34s WALL (       5 calls)
     PAW_pot      :      0.56s CPU      0.60s WALL (       5 calls)
     mix_rho      :      0.01s CPU      0.01s WALL (       5 calls)

     Called by c_bands:
     init_us_2    :      0.05s CPU      0.05s WALL (     330 calls)
     cegterg      :      6.30s CPU      6.48s WALL (     150 calls)

     Called by sum_band:
     sum_band:bec :      0.31s CPU      0.31s WALL (     150 calls)
     addusdens    :      0.15s CPU      0.16s WALL (       5 calls)

     Called by *egterg:
     h_psi        :      5.29s CPU      5.49s WALL (     511 calls)
     s_psi        :      0.29s CPU      0.30s WALL (     511 calls)
     g_psi        :      0.03s CPU      0.03s WALL (     331 calls)
     cdiaghg      :      0.60s CPU      0.72s WALL (     451 calls)

     Called by h_psi:
     h_psi:pot    :      5.25s CPU      5.45s WALL (     511 calls)
     h_psi:calbec :      0.25s CPU      0.27s WALL (     511 calls)
     vloc_psi     :      4.68s CPU      4.85s WALL (     511 calls)
     add_vuspsi   :      0.32s CPU      0.33s WALL (     511 calls)

     General routines
     calbec       :      0.33s CPU      0.35s WALL (     661 calls)
     fft          :      0.03s CPU      0.30s WALL (      97 calls)
     fftw         :      4.78s CPU      4.96s WALL (   59476 calls)
     davcio       :      0.00s CPU      0.01s WALL (      30 calls)
 
     Parallel routines
     fft_scatter  :      1.72s CPU      1.80s WALL (   59573 calls)
 
     PWSCF        :  0m11.74s CPU     1m 1.09s WALL

 
   This run was terminated on:  11:37:58  30Nov2022            

=------------------------------------------------------------------------------=
   JOB DONE.
=------------------------------------------------------------------------------=
Removing 2346 from /home/shaharpit/tmp
