
     Program PWSCF v.6.1 (svn rev. 13369) starts on 30Nov2022 at 11:36:57 

     This program is part of the open-source Quantum ESPRESSO suite
     for quantum simulation of materials; please cite
         "P. Giannozzi et al., J. Phys.:Condens. Matter 21 395502 (2009);
          URL http://www.quantum-espresso.org", 
     in publications or presentations arising from this work. More details at
     http://www.quantum-espresso.org/quote

     Parallel version (MPI), running on     8 processors
     R & G space division:  proc/nbgrp/npool/nimage =       8
     Reading input from ./Gd_1.in
Warning: card &IONS ignored
Warning: card 	ION_DYNAMICS='BFGS', ignored
Warning: card / ignored
Warning: card &CELL ignored
Warning: card / ignored
Warning: card H 1.00794 H.PBE-KJPAW_PSL.0.1.UPF ignored

     Current dimensions of program PWSCF are:
     Max number of different atomic species (ntypx) = 10
     Max number of k-points (npk) =  40000
     Max angular momentum in pseudopotentials (lmaxx) =  3
               file Gd.rel-pbe-spdn-kjpaw_psl.1.0.0.UPF: wavefunction(s)  5P 5P renormalized

     Subspace diagonalization in iterative solution of the eigenvalue problem:
     a serial algorithm will be used

 
     Parallelization info
     --------------------
     sticks:   dense  smooth     PW     G-vecs:    dense   smooth      PW
     Min          81      81     25                 2635     2635     482
     Max          82      82     32                 2640     2640     483
     Sum         649     649    211                21097    21097    3861
 


     bravais-lattice index     =            0
     lattice parameter (alat)  =       6.8293  a.u.
     unit-cell volume          =     440.4257 (a.u.)^3
     number of atoms/cell      =            2
     number of atomic types    =            1
     number of electrons       =        22.00
     number of Kohn-Sham states=           30
     kinetic-energy cutoff     =      50.0000  Ry
     charge density cutoff     =     200.0000  Ry
     convergence threshold     =      1.0E-06
     mixing beta               =       0.7000
     number of iterations used =            8  plain     mixing
     Exchange-correlation      =  SLA  PW   PBX  PBC ( 1  4  3  4 0 0)
     Non magnetic calculation with spin-orbit


     celldm(1)=   6.829281  celldm(2)=   0.000000  celldm(3)=   0.000000
     celldm(4)=   0.000000  celldm(5)=   0.000000  celldm(6)=   0.000000

     crystal axes: (cart. coord. in units of alat)
               a(1) = (   1.000000   0.000000   0.000000 )  
               a(2) = (  -0.500014   0.866045   0.000000 )  
               a(3) = (   0.000000   0.000000   1.596641 )  

     reciprocal axes: (cart. coord. in units 2 pi/alat)
               b(1) = (  1.000000  0.577353  0.000000 )  
               b(2) = (  0.000000  1.154674  0.000000 )  
               b(3) = (  0.000000  0.000000  0.626315 )  


     PseudoPot. # 1 for Gd read from file:
     /home/shaharpit/MeamGdH/dft/qe_potentials/Gd.rel-pbe-spdn-kjpaw_psl.1.0.0.UPF
     MD5 check sum: cf50ec46d1536b4a0251694df1946a53
     Pseudo is Projector augmented-wave + core cor, Zval = 11.0
     Generated using "atomic" code by A. Dal Corso  v.6.2.2
     Shape of augmentation charge: PSQ
     Using radial grid of 1263 points, 10 beta functions with: 
                l(1) =   0
                l(2) =   0
                l(3) =   1
                l(4) =   1
                l(5) =   1
                l(6) =   1
                l(7) =   2
                l(8) =   2
                l(9) =   2
               l(10) =   2
     Q(r) pseudized with 0 coefficients 


     atomic species   valence    mass     pseudopotential
        Gd            11.00   157.25000     Gd( 1.00)

      4 Sym. Ops., with inversion, found ( 2 have fractional translation)



   Cartesian axes

     site n.     atom                  positions (alat units)
         1           Gd  tau(   1) = (   0.5000454   0.2886528   1.1974806  )
         2           Gd  tau(   2) = (  -0.0000592   0.5773922   0.3991602  )

     number of k points=    30  gaussian smearing, width (Ry)=  0.0100
                       cart. coord. in units 2pi/alat
        k(    1) = (   0.0000000   0.0000000   0.0000000), wk =   0.0156250
        k(    2) = (   0.0000000   0.0000000   0.1565787), wk =   0.0312500
        k(    3) = (   0.0000000   0.0000000  -0.3131575), wk =   0.0156250
        k(    4) = (   0.0000000   0.2886686   0.0000000), wk =   0.0312500
        k(    5) = (   0.0000000   0.2886686   0.1565787), wk =   0.0625000
        k(    6) = (   0.0000000   0.2886686  -0.3131575), wk =   0.0312500
        k(    7) = (   0.0000000  -0.5773372   0.0000000), wk =   0.0156250
        k(    8) = (   0.0000000  -0.5773372   0.1565787), wk =   0.0312500
        k(    9) = (   0.0000000  -0.5773372  -0.3131575), wk =   0.0156250
        k(   10) = (   0.2500000   0.1443383   0.0000000), wk =   0.0312500
        k(   11) = (   0.2500000   0.1443383   0.1565787), wk =   0.0625000
        k(   12) = (   0.2500000   0.1443383  -0.3131575), wk =   0.0312500
        k(   13) = (   0.2500000   0.4330069   0.0000000), wk =   0.0312500
        k(   14) = (   0.2500000   0.4330069   0.1565787), wk =   0.0625000
        k(   15) = (   0.2500000   0.4330069  -0.3131575), wk =   0.0312500
        k(   16) = (   0.2500000  -0.4329989   0.0000000), wk =   0.0312500
        k(   17) = (   0.2500000  -0.4329989   0.1565787), wk =   0.0625000
        k(   18) = (   0.2500000  -0.4329989  -0.3131575), wk =   0.0312500
        k(   19) = (   0.2500000  -0.1443303   0.0000000), wk =   0.0312500
        k(   20) = (   0.2500000  -0.1443303   0.1565787), wk =   0.0625000
        k(   21) = (   0.2500000  -0.1443303  -0.3131575), wk =   0.0312500
        k(   22) = (  -0.5000000  -0.2886766   0.0000000), wk =   0.0156250
        k(   23) = (  -0.5000000  -0.2886766   0.1565787), wk =   0.0312500
        k(   24) = (  -0.5000000  -0.2886766  -0.3131575), wk =   0.0156250
        k(   25) = (  -0.5000000  -0.0000080   0.0000000), wk =   0.0312500
        k(   26) = (  -0.5000000  -0.0000080   0.1565787), wk =   0.0625000
        k(   27) = (  -0.5000000  -0.0000080  -0.3131575), wk =   0.0312500
        k(   28) = (  -0.5000000  -0.8660138   0.0000000), wk =   0.0156250
        k(   29) = (  -0.5000000  -0.8660138   0.1565787), wk =   0.0312500
        k(   30) = (  -0.5000000  -0.8660138  -0.3131575), wk =   0.0156250

     Dense  grid:    21097 G-vectors     FFT dimensions: (  32,  32,  50)

     Estimated max dynamical RAM per process >      17.34MB

     Estimated total allocated dynamical RAM >     138.71MB

     Initial potential from superposition of free atoms

     starting charge   21.96191, renormalised to   22.00000
     Starting wfc are   52 randomized atomic wfcs
     Checking if some PAW data can be deallocated... 

     total cpu time spent up to now is        3.5 secs

     per-process dynamical memory:    51.1 Mb

     Self-consistent Calculation

     iteration #  1     ecut=    50.00 Ry     beta=0.70
     Davidson diagonalization with overlap
     ethr =  1.00E-02,  avg # of iterations =  2.0

     Threshold (ethr) on eigenvalues was too large:
     Diagonalizing with lowered threshold

     Davidson diagonalization with overlap
     ethr =  5.76E-05,  avg # of iterations =  2.8

     total cpu time spent up to now is        7.7 secs

     total energy              =   -1119.22759560 Ry
     Harris-Foulkes estimate   =   -1119.23807904 Ry
     estimated scf accuracy    <       0.01774907 Ry

     iteration #  2     ecut=    50.00 Ry     beta=0.70
     Davidson diagonalization with overlap
     ethr =  8.07E-05,  avg # of iterations =  2.0

     total cpu time spent up to now is       10.4 secs

     total energy              =   -1119.23085731 Ry
     Harris-Foulkes estimate   =   -1119.23099325 Ry
     estimated scf accuracy    <       0.00044364 Ry

     iteration #  3     ecut=    50.00 Ry     beta=0.70
     Davidson diagonalization with overlap
     ethr =  2.02E-06,  avg # of iterations =  2.1

     total cpu time spent up to now is       13.0 secs

     total energy              =   -1119.23091926 Ry
     Harris-Foulkes estimate   =   -1119.23091712 Ry
     estimated scf accuracy    <       0.00003176 Ry

     iteration #  4     ecut=    50.00 Ry     beta=0.70
     Davidson diagonalization with overlap
     ethr =  1.44E-07,  avg # of iterations =  2.1

     total cpu time spent up to now is       14.6 secs

     End of self-consistent calculation

          k = 0.0000 0.0000 0.0000 (  2647 PWs)   bands (ev):

   -33.6603 -33.6603 -33.5817 -33.5817 -14.3930 -14.3930 -14.1320 -14.1320
   -10.3486 -10.3486  -9.8522  -9.8522  -9.7212  -9.7212  -9.6921  -9.6921
     5.7321   5.7321   8.3371   8.3371  11.8341  11.8341  12.0487  12.0487
    12.2667  12.2667  12.3192  12.3192  12.6807  12.6809

          k = 0.0000 0.0000 0.1566 (  2653 PWs)   bands (ev):

   -33.6489 -33.6489 -33.5933 -33.5933 -14.3537 -14.3537 -14.1691 -14.1691
   -10.2620 -10.2620  -9.8332  -9.8332  -9.7988  -9.7988  -9.7405  -9.7405
     6.1713   6.1713   8.1430   8.1430  11.3495  11.3496  11.9322  11.9322
    11.9326  11.9326  12.1226  12.1226  12.4020  12.4022

          k = 0.0000 0.0000-0.3132 (  2616 PWs)   bands (ev):

   -33.6212 -33.6212 -33.6212 -33.6212 -14.2602 -14.2602 -14.2602 -14.2602
   -10.0403 -10.0403 -10.0403 -10.0403  -9.7871  -9.7871  -9.7871  -9.7871
     7.2448   7.2448   7.2448   7.2448  11.2945  11.2945  11.2946  11.2946
    12.0106  12.0107  12.0107  12.0110  12.1830  12.1830

          k = 0.0000 0.2887 0.0000 (  2627 PWs)   bands (ev):

   -33.6287 -33.6287 -33.5701 -33.5701 -14.4213 -14.4213 -14.2392 -14.2392
   -10.3292 -10.3292 -10.0275 -10.0275  -9.9848  -9.9848  -9.7687  -9.7687
     7.0779   7.0779   9.3533   9.3533  10.4019  10.4019  10.7914  10.7914
    11.8384  11.8385  12.3832  12.3832  12.5363  12.5363

          k = 0.0000 0.2887 0.1566 (  2628 PWs)   bands (ev):

   -33.6202 -33.6202 -33.5788 -33.5788 -14.3951 -14.3951 -14.2663 -14.2663
   -10.2830 -10.2830 -10.0478 -10.0478  -9.9814  -9.9814  -9.8021  -9.8021
     7.3966   7.3966   9.1964   9.1964  10.1507  10.1507  10.9005  10.9005
    11.5990  11.5990  12.2089  12.2089  12.6181  12.6181

          k = 0.0000 0.2887-0.3132 (  2628 PWs)   bands (ev):

   -33.5995 -33.5995 -33.5995 -33.5995 -14.3311 -14.3311 -14.3311 -14.3311
   -10.1688 -10.1688 -10.1687 -10.1687  -9.8905  -9.8905  -9.8905  -9.8905
     8.2504   8.2504   8.2504   8.2504  10.6074  10.6074  10.6074  10.6074
    11.6472  11.6472  11.6472  11.6473  13.0019  13.0020

          k = 0.0000-0.5773 0.0000 (  2642 PWs)   bands (ev):

   -33.5906 -33.5906 -33.5649 -33.5649 -14.4347 -14.4347 -14.3687 -14.3687
   -10.2917 -10.2917 -10.2876 -10.2876 -10.1166 -10.1166  -9.8661  -9.8661
     8.7167   8.7167   8.9966   8.9966   9.4092   9.4092  10.7728  10.7728
    11.8667  11.8667  11.9320  11.9320  12.6226  12.6226

          k = 0.0000-0.5773 0.1566 (  2626 PWs)   bands (ev):

   -33.5869 -33.5869 -33.5686 -33.5686 -14.4270 -14.4270 -14.3803 -14.3803
   -10.3296 -10.3296 -10.3088 -10.3088 -10.0394 -10.0394  -9.8738  -9.8738
     8.4275   8.4275   9.0032   9.0032  10.1162  10.1162  10.2378  10.2378
    12.1435  12.1435  12.2944  12.2944  12.4855  12.4855

          k = 0.0000-0.5773-0.3132 (  2636 PWs)   bands (ev):

   -33.5778 -33.5778 -33.5778 -33.5778 -14.4056 -14.4056 -14.4056 -14.4056
   -10.3416 -10.3416 -10.3416 -10.3416  -9.9290  -9.9290  -9.9290  -9.9290
     8.5839   8.5839   8.5839   8.5839  10.3651  10.3651  10.3651  10.3651
    12.2643  12.2643  12.2643  12.2644  13.4119  13.4119

          k = 0.2500 0.1443 0.0000 (  2627 PWs)   bands (ev):

   -33.6287 -33.6287 -33.5701 -33.5701 -14.4213 -14.4213 -14.2392 -14.2392
   -10.3291 -10.3291 -10.0275 -10.0275  -9.9848  -9.9848  -9.7688  -9.7688
     7.0779   7.0779   9.3533   9.3533  10.4019  10.4019  10.7915  10.7915
    11.8385  11.8386  12.3832  12.3832  12.5361  12.5361

          k = 0.2500 0.1443 0.1566 (  2628 PWs)   bands (ev):

   -33.6202 -33.6202 -33.5788 -33.5788 -14.3951 -14.3951 -14.2663 -14.2663
   -10.2830 -10.2830 -10.0479 -10.0479  -9.9814  -9.9814  -9.8021  -9.8021
     7.3966   7.3966   9.1964   9.1964  10.1507  10.1507  10.9006  10.9006
    11.5990  11.5990  12.2090  12.2090  12.6179  12.6179

          k = 0.2500 0.1443-0.3132 (  2628 PWs)   bands (ev):

   -33.5995 -33.5995 -33.5995 -33.5995 -14.3311 -14.3311 -14.3311 -14.3311
   -10.1688 -10.1687 -10.1687 -10.1687  -9.8905  -9.8905  -9.8905  -9.8905
     8.2504   8.2504   8.2504   8.2504  10.6075  10.6075  10.6075  10.6075
    11.6473  11.6473  11.6473  11.6473  13.0017  13.0017

          k = 0.2500 0.4330 0.0000 (  2626 PWs)   bands (ev):

   -33.5908 -33.5908 -33.5647 -33.5647 -14.4361 -14.4361 -14.3618 -14.3618
   -10.2693 -10.2693 -10.2280 -10.2280 -10.1455 -10.1455  -9.9402  -9.9402
     8.9884   8.9884   9.6029   9.6029  10.0075  10.0075  10.1258  10.1258
    11.4315  11.4315  11.9904  11.9904  12.3529  12.3529

          k = 0.2500 0.4330 0.1566 (  2622 PWs)   bands (ev):

   -33.5870 -33.5870 -33.5685 -33.5685 -14.4272 -14.4272 -14.3744 -14.3744
   -10.3315 -10.3315 -10.2256 -10.2256 -10.0895 -10.0895  -9.9264  -9.9264
     9.0240   9.0240   9.4669   9.4669  10.1315  10.1315  10.4743  10.4743
    11.3940  11.3940  11.4736  11.4736  12.3822  12.3822

          k = 0.2500 0.4330-0.3132 (  2644 PWs)   bands (ev):

   -33.5778 -33.5778 -33.5778 -33.5778 -14.4055 -14.4055 -14.3997 -14.3997
   -10.3658 -10.3658 -10.2388 -10.2388 -10.0405 -10.0405  -9.9180  -9.9180
     9.1724   9.1724   9.2438   9.2438  10.5576  10.5576  10.5923  10.5923
    11.1376  11.1376  11.1509  11.1509  12.9107  12.9117

          k = 0.2500-0.4330 0.0000 (  2626 PWs)   bands (ev):

   -33.5908 -33.5908 -33.5647 -33.5647 -14.4362 -14.4362 -14.3617 -14.3617
   -10.2693 -10.2693 -10.2280 -10.2280 -10.1456 -10.1456  -9.9401  -9.9401
     8.9882   8.9882   9.6026   9.6026  10.0077  10.0077  10.1256  10.1256
    11.4315  11.4315  11.9908  11.9908  12.3525  12.3525

          k = 0.2500-0.4330 0.1566 (  2622 PWs)   bands (ev):

   -33.5870 -33.5870 -33.5685 -33.5685 -14.4272 -14.4272 -14.3744 -14.3744
   -10.3315 -10.3315 -10.2255 -10.2255 -10.0896 -10.0896  -9.9264  -9.9264
     9.0240   9.0240   9.4668   9.4668  10.1316  10.1316  10.4738  10.4738
    11.3944  11.3944  11.4738  11.4738  12.3820  12.3820

          k = 0.2500-0.4330-0.3132 (  2644 PWs)   bands (ev):

   -33.5778 -33.5778 -33.5778 -33.5778 -14.4055 -14.4055 -14.3997 -14.3997
   -10.3658 -10.3658 -10.2387 -10.2387 -10.0405 -10.0405  -9.9180  -9.9180
     9.1724   9.1724   9.2438   9.2438  10.5580  10.5580  10.5928  10.5928
    11.1371  11.1371  11.1505  11.1505  12.9113  12.9119

          k = 0.2500-0.1443 0.0000 (  2627 PWs)   bands (ev):

   -33.6287 -33.6287 -33.5701 -33.5701 -14.4214 -14.4214 -14.2392 -14.2392
   -10.3292 -10.3292 -10.0275 -10.0275  -9.9848  -9.9848  -9.7687  -9.7687
     7.0778   7.0778   9.3530   9.3530  10.4013  10.4013  10.7917  10.7917
    11.8386  11.8386  12.3842  12.3842  12.5361  12.5361

          k = 0.2500-0.1443 0.1566 (  2628 PWs)   bands (ev):

   -33.6202 -33.6202 -33.5788 -33.5788 -14.3951 -14.3951 -14.2663 -14.2663
   -10.2830 -10.2830 -10.0478 -10.0478  -9.9814  -9.9814  -9.8021  -9.8021
     7.3966   7.3966   9.1962   9.1962  10.1504  10.1504  10.9005  10.9005
    11.5996  11.5997  12.2093  12.2093  12.6178  12.6179

          k = 0.2500-0.1443-0.3132 (  2628 PWs)   bands (ev):

   -33.5995 -33.5995 -33.5995 -33.5995 -14.3311 -14.3311 -14.3311 -14.3311
   -10.1687 -10.1687 -10.1687 -10.1687  -9.8905  -9.8905  -9.8905  -9.8905
     8.2504   8.2504   8.2504   8.2504  10.6073  10.6073  10.6073  10.6073
    11.6476  11.6476  11.6476  11.6476  13.0020  13.0020

          k =-0.5000-0.2887 0.0000 (  2642 PWs)   bands (ev):

   -33.5906 -33.5906 -33.5649 -33.5649 -14.4347 -14.4347 -14.3688 -14.3688
   -10.2917 -10.2917 -10.2876 -10.2876 -10.1167 -10.1167  -9.8661  -9.8661
     8.7167   8.7167   8.9966   8.9966   9.4092   9.4092  10.7729  10.7729
    11.8666  11.8666  11.9319  11.9319  12.6228  12.6228

          k =-0.5000-0.2887 0.1566 (  2626 PWs)   bands (ev):

   -33.5869 -33.5869 -33.5686 -33.5686 -14.4270 -14.4270 -14.3803 -14.3803
   -10.3296 -10.3296 -10.3088 -10.3088 -10.0395 -10.0395  -9.8738  -9.8738
     8.4276   8.4276   9.0032   9.0032  10.1162  10.1162  10.2378  10.2378
    12.1436  12.1436  12.2944  12.2944  12.4855  12.4856

          k =-0.5000-0.2887-0.3132 (  2636 PWs)   bands (ev):

   -33.5777 -33.5777 -33.5777 -33.5777 -14.4056 -14.4056 -14.4056 -14.4056
   -10.3416 -10.3416 -10.3416 -10.3416  -9.9290  -9.9290  -9.9290  -9.9290
     8.5840   8.5840   8.5840   8.5840  10.3651  10.3651  10.3651  10.3651
    12.2644  12.2645  12.2645  12.2646  13.4116  13.4116

          k =-0.5000-0.0000 0.0000 (  2626 PWs)   bands (ev):

   -33.5908 -33.5908 -33.5647 -33.5647 -14.4362 -14.4362 -14.3617 -14.3617
   -10.2693 -10.2693 -10.2280 -10.2280 -10.1456 -10.1456  -9.9401  -9.9401
     8.9883   8.9883   9.6026   9.6026  10.0076  10.0076  10.1256  10.1256
    11.4314  11.4314  11.9909  11.9909  12.3525  12.3525

          k =-0.5000-0.0000 0.1566 (  2622 PWs)   bands (ev):

   -33.5870 -33.5870 -33.5685 -33.5685 -14.4272 -14.4272 -14.3744 -14.3744
   -10.3315 -10.3315 -10.2256 -10.2256 -10.0896 -10.0896  -9.9264  -9.9264
     9.0240   9.0240   9.4668   9.4668  10.1315  10.1315  10.4738  10.4738
    11.3944  11.3944  11.4738  11.4738  12.3820  12.3820

          k =-0.5000-0.0000-0.3132 (  2644 PWs)   bands (ev):

   -33.5778 -33.5778 -33.5778 -33.5778 -14.4055 -14.4055 -14.3997 -14.3997
   -10.3658 -10.3658 -10.2388 -10.2388 -10.0405 -10.0405  -9.9180  -9.9180
     9.1724   9.1724   9.2438   9.2438  10.5579  10.5579  10.5927  10.5927
    11.1372  11.1372  11.1507  11.1507  12.9106  12.9114

          k =-0.5000-0.8660 0.0000 (  2642 PWs)   bands (ev):

   -33.5907 -33.5907 -33.5648 -33.5648 -14.4348 -14.4348 -14.3687 -14.3687
   -10.2918 -10.2918 -10.2875 -10.2875 -10.1168 -10.1168  -9.8659  -9.8659
     8.7161   8.7161   8.9966   8.9966   9.4084   9.4084  10.7731  10.7731
    11.8674  11.8674  11.9327  11.9327  12.6232  12.6232

          k =-0.5000-0.8660 0.1566 (  2626 PWs)   bands (ev):

   -33.5869 -33.5869 -33.5686 -33.5686 -14.4270 -14.4270 -14.3802 -14.3802
   -10.3296 -10.3296 -10.3087 -10.3087 -10.0396 -10.0396  -9.8737  -9.8737
     8.4274   8.4274   9.0034   9.0034  10.1156  10.1156  10.2378  10.2378
    12.1438  12.1438  12.2947  12.2947  12.4861  12.4861

          k =-0.5000-0.8660-0.3132 (  2636 PWs)   bands (ev):

   -33.5777 -33.5777 -33.5777 -33.5777 -14.4056 -14.4056 -14.4056 -14.4056
   -10.3416 -10.3416 -10.3416 -10.3416  -9.9291  -9.9291  -9.9291  -9.9291
     8.5843   8.5843   8.5843   8.5843  10.3649  10.3649  10.3649  10.3649
    12.2644  12.2644  12.2644  12.2645  13.4117  13.4117

     the Fermi energy is    10.4290 ev

!    total energy              =   -1119.23092151 Ry
     Harris-Foulkes estimate   =   -1119.23092147 Ry
     estimated scf accuracy    <       0.00000015 Ry

     total all-electron energy =    -45121.402627 Ry

     The total energy is the sum of the following terms:

     one-electron contribution =     -25.28205541 Ry
     hartree contribution      =      21.45752947 Ry
     xc contribution           =    -125.64385344 Ry
     ewald contribution        =    -115.73259017 Ry
     one-center paw contrib.   =    -874.02743583 Ry
     smearing contrib. (-TS)   =      -0.00251613 Ry

     convergence has been achieved in   4 iterations

     Writing output data file 2343.save
 
     init_run     :      1.30s CPU      1.94s WALL (       1 calls)
     electrons    :      9.62s CPU     11.33s WALL (       1 calls)

     Called by init_run:
     wfcinit      :      0.80s CPU      0.96s WALL (       1 calls)
     potinit      :      0.24s CPU      0.30s WALL (       1 calls)

     Called by electrons:
     c_bands      :      7.16s CPU      8.11s WALL (       5 calls)
     sum_band     :      1.74s CPU      2.13s WALL (       5 calls)
     v_of_rho     :      0.01s CPU      0.02s WALL (       5 calls)
     newd         :      0.28s CPU      0.36s WALL (       5 calls)
     PAW_pot      :      0.68s CPU      0.85s WALL (       5 calls)
     mix_rho      :      0.01s CPU      0.03s WALL (       5 calls)

     Called by c_bands:
     init_us_2    :      0.05s CPU      0.05s WALL (     330 calls)
     cegterg      :      6.24s CPU      7.18s WALL (     150 calls)

     Called by sum_band:
     sum_band:bec :      0.31s CPU      0.31s WALL (     150 calls)
     addusdens    :      0.14s CPU      0.16s WALL (       5 calls)

     Called by *egterg:
     h_psi        :      5.01s CPU      5.88s WALL (     511 calls)
     s_psi        :      0.27s CPU      0.27s WALL (     511 calls)
     g_psi        :      0.03s CPU      0.03s WALL (     331 calls)
     cdiaghg      :      0.77s CPU      0.87s WALL (     451 calls)

     Called by h_psi:
     h_psi:pot    :      4.97s CPU      5.84s WALL (     511 calls)
     h_psi:calbec :      0.24s CPU      0.30s WALL (     511 calls)
     vloc_psi     :      4.43s CPU      5.23s WALL (     511 calls)
     add_vuspsi   :      0.30s CPU      0.30s WALL (     511 calls)

     General routines
     calbec       :      0.34s CPU      0.45s WALL (     661 calls)
     fft          :      0.05s CPU      0.27s WALL (      97 calls)
     fftw         :      4.90s CPU      5.97s WALL (   59528 calls)
     davcio       :      0.00s CPU      0.01s WALL (      30 calls)
 
     Parallel routines
     fft_scatter  :      3.12s CPU      4.12s WALL (   59625 calls)
 
     PWSCF        :    12.13s CPU        32.74s WALL

 
   This run was terminated on:  11:37:30  30Nov2022            

=------------------------------------------------------------------------------=
   JOB DONE.
=------------------------------------------------------------------------------=
Removing 2343 from /home/shaharpit/tmp
