
     Program PWSCF v.6.1 (svn rev. 13369) starts on 30Nov2022 at 11:36:57 

     This program is part of the open-source Quantum ESPRESSO suite
     for quantum simulation of materials; please cite
         "P. Giannozzi et al., J. Phys.:Condens. Matter 21 395502 (2009);
          URL http://www.quantum-espresso.org", 
     in publications or presentations arising from this work. More details at
     http://www.quantum-espresso.org/quote

     Parallel version (MPI), running on     8 processors
     R & G space division:  proc/nbgrp/npool/nimage =       8
     Reading input from ./Gd_1.05.in
Warning: card &IONS ignored
Warning: card 	ION_DYNAMICS='BFGS', ignored
Warning: card / ignored
Warning: card &CELL ignored
Warning: card / ignored
Warning: card H 1.00794 H.PBE-KJPAW_PSL.0.1.UPF ignored

     Current dimensions of program PWSCF are:
     Max number of different atomic species (ntypx) = 10
     Max number of k-points (npk) =  40000
     Max angular momentum in pseudopotentials (lmaxx) =  3
               file Gd.rel-pbe-spdn-kjpaw_psl.1.0.0.UPF: wavefunction(s)  5P 5P renormalized

     Subspace diagonalization in iterative solution of the eigenvalue problem:
     a serial algorithm will be used

 
     Parallelization info
     --------------------
     sticks:   dense  smooth     PW     G-vecs:    dense   smooth      PW
     Min          82      82     24                 2767     2767     442
     Max          87      87     25                 2768     2768     447
     Sum         673     673    199                22141    22141    3561
 


     bravais-lattice index     =            0
     lattice parameter (alat)  =       6.9413  a.u.
     unit-cell volume          =     462.4495 (a.u.)^3
     number of atoms/cell      =            2
     number of atomic types    =            1
     number of electrons       =        22.00
     number of Kohn-Sham states=           30
     kinetic-energy cutoff     =      50.0000  Ry
     charge density cutoff     =     200.0000  Ry
     convergence threshold     =      1.0E-06
     mixing beta               =       0.7000
     number of iterations used =            8  plain     mixing
     Exchange-correlation      =  SLA  PW   PBX  PBC ( 1  4  3  4 0 0)
     Non magnetic calculation with spin-orbit


     celldm(1)=   6.941342  celldm(2)=   0.000000  celldm(3)=   0.000000
     celldm(4)=   0.000000  celldm(5)=   0.000000  celldm(6)=   0.000000

     crystal axes: (cart. coord. in units of alat)
               a(1) = (   1.000000   0.000000   0.000000 )  
               a(2) = (  -0.500000   0.866030   0.000000 )  
               a(3) = (   0.000000   0.000000   1.596619 )  

     reciprocal axes: (cart. coord. in units 2 pi/alat)
               b(1) = (  1.000000  0.577347  0.000000 )  
               b(2) = (  0.000000  1.154695  0.000000 )  
               b(3) = (  0.000000  0.000000  0.626324 )  


     PseudoPot. # 1 for Gd read from file:
     /home/shaharpit/MeamGdH/dft/qe_potentials/Gd.rel-pbe-spdn-kjpaw_psl.1.0.0.UPF
     MD5 check sum: cf50ec46d1536b4a0251694df1946a53
     Pseudo is Projector augmented-wave + core cor, Zval = 11.0
     Generated using "atomic" code by A. Dal Corso  v.6.2.2
     Shape of augmentation charge: PSQ
     Using radial grid of 1263 points, 10 beta functions with: 
                l(1) =   0
                l(2) =   0
                l(3) =   1
                l(4) =   1
                l(5) =   1
                l(6) =   1
                l(7) =   2
                l(8) =   2
                l(9) =   2
               l(10) =   2
     Q(r) pseudized with 0 coefficients 


     atomic species   valence    mass     pseudopotential
        Gd            11.00   157.25000     Gd( 1.00)

      4 Sym. Ops., with inversion, found ( 2 have fractional translation)



   Cartesian axes

     site n.     atom                  positions (alat units)
         1           Gd  tau(   1) = (   0.5000500   0.2886477   1.1974641  )
         2           Gd  tau(   2) = (  -0.0000500   0.5773819   0.3991547  )

     number of k points=    30  gaussian smearing, width (Ry)=  0.0100
                       cart. coord. in units 2pi/alat
        k(    1) = (   0.0000000   0.0000000   0.0000000), wk =   0.0156250
        k(    2) = (   0.0000000   0.0000000   0.1565809), wk =   0.0312500
        k(    3) = (   0.0000000   0.0000000  -0.3131618), wk =   0.0156250
        k(    4) = (   0.0000000   0.2886737   0.0000000), wk =   0.0312500
        k(    5) = (   0.0000000   0.2886737   0.1565809), wk =   0.0625000
        k(    6) = (   0.0000000   0.2886737  -0.3131618), wk =   0.0312500
        k(    7) = (   0.0000000  -0.5773475   0.0000000), wk =   0.0156250
        k(    8) = (   0.0000000  -0.5773475   0.1565809), wk =   0.0312500
        k(    9) = (   0.0000000  -0.5773475  -0.3131618), wk =   0.0156250
        k(   10) = (   0.2500000   0.1443369   0.0000000), wk =   0.0312500
        k(   11) = (   0.2500000   0.1443369   0.1565809), wk =   0.0625000
        k(   12) = (   0.2500000   0.1443369  -0.3131618), wk =   0.0312500
        k(   13) = (   0.2500000   0.4330106   0.0000000), wk =   0.0312500
        k(   14) = (   0.2500000   0.4330106   0.1565809), wk =   0.0625000
        k(   15) = (   0.2500000   0.4330106  -0.3131618), wk =   0.0312500
        k(   16) = (  -0.5000000  -0.2886737   0.0000000), wk =   0.0156250
        k(   17) = (  -0.5000000  -0.2886737   0.1565809), wk =   0.0312500
        k(   18) = (  -0.5000000  -0.2886737  -0.3131618), wk =   0.0156250
        k(   19) = (  -0.5000000   0.0000000   0.0000000), wk =   0.0312500
        k(   20) = (  -0.5000000   0.0000000   0.1565809), wk =   0.0625000
        k(   21) = (  -0.5000000   0.0000000  -0.3131618), wk =   0.0312500
        k(   22) = (  -0.2500000   0.1443369   0.0000000), wk =   0.0312500
        k(   23) = (  -0.2500000   0.1443369  -0.1565809), wk =   0.0625000
        k(   24) = (  -0.2500000   0.1443369   0.3131618), wk =   0.0312500
        k(   25) = (  -0.2500000   0.4330106   0.0000000), wk =   0.0312500
        k(   26) = (  -0.2500000   0.4330106  -0.1565809), wk =   0.0625000
        k(   27) = (  -0.2500000   0.4330106   0.3131618), wk =   0.0312500
        k(   28) = (   0.5000000  -0.2886737   0.0000000), wk =   0.0156250
        k(   29) = (   0.5000000  -0.2886737  -0.1565809), wk =   0.0312500
        k(   30) = (   0.5000000  -0.2886737   0.3131618), wk =   0.0156250

     Dense  grid:    22141 G-vectors     FFT dimensions: (  32,  32,  50)

     Estimated max dynamical RAM per process >      18.13MB

     Estimated total allocated dynamical RAM >     145.06MB

     Initial potential from superposition of free atoms

     starting charge   21.96191, renormalised to   22.00000
     Starting wfc are   52 randomized atomic wfcs
     Checking if some PAW data can be deallocated... 

     total cpu time spent up to now is        3.3 secs

     per-process dynamical memory:    52.0 Mb

     Self-consistent Calculation

     iteration #  1     ecut=    50.00 Ry     beta=0.70
     Davidson diagonalization with overlap
     ethr =  1.00E-02,  avg # of iterations =  2.0

     Threshold (ethr) on eigenvalues was too large:
     Diagonalizing with lowered threshold

     Davidson diagonalization with overlap
     ethr =  5.74E-05,  avg # of iterations =  2.9

     total cpu time spent up to now is        6.4 secs

     total energy              =   -1119.22708900 Ry
     Harris-Foulkes estimate   =   -1119.23759748 Ry
     estimated scf accuracy    <       0.01824199 Ry

     iteration #  2     ecut=    50.00 Ry     beta=0.70
     Davidson diagonalization with overlap
     ethr =  8.29E-05,  avg # of iterations =  2.0

     total cpu time spent up to now is        8.1 secs

     total energy              =   -1119.23039021 Ry
     Harris-Foulkes estimate   =   -1119.23053366 Ry
     estimated scf accuracy    <       0.00047897 Ry

     iteration #  3     ecut=    50.00 Ry     beta=0.70
     Davidson diagonalization with overlap
     ethr =  2.18E-06,  avg # of iterations =  2.1

     total cpu time spent up to now is        9.9 secs

     total energy              =   -1119.23045658 Ry
     Harris-Foulkes estimate   =   -1119.23045393 Ry
     estimated scf accuracy    <       0.00003436 Ry

     iteration #  4     ecut=    50.00 Ry     beta=0.70
     Davidson diagonalization with overlap
     ethr =  1.56E-07,  avg # of iterations =  2.2

     total cpu time spent up to now is       11.4 secs

     End of self-consistent calculation

          k = 0.0000 0.0000 0.0000 (  2779 PWs)   bands (ev):

   -34.3626 -34.3626 -34.2994 -34.2994 -15.0867 -15.0867 -14.8683 -14.8683
   -11.0037 -11.0037 -10.5780 -10.5780 -10.4648 -10.4648 -10.4387 -10.4387
     5.2143   5.2143   7.8267   7.8267  11.0649  11.0650  11.4249  11.4249
    11.6419  11.6419  11.6822  11.6823  12.0163  12.0163

          k = 0.0000 0.0000 0.1566 (  2767 PWs)   bands (ev):

   -34.3534 -34.3534 -34.3087 -34.3087 -15.0539 -15.0539 -14.8995 -14.8995
   -10.9281 -10.9281 -10.5616 -10.5616 -10.5292 -10.5292 -10.4815 -10.4815
     5.6296   5.6296   7.5932   7.5932  10.6553  10.6553  11.3136  11.3137
    11.3155  11.3155  11.5042  11.5042  11.7562  11.7566

          k = 0.0000 0.0000-0.3132 (  2760 PWs)   bands (ev):

   -34.3311 -34.3311 -34.3311 -34.3311 -14.9759 -14.9759 -14.9759 -14.9759
   -10.7362 -10.7362 -10.7362 -10.7362 -10.5217 -10.5217 -10.5217 -10.5217
     6.6640   6.6640   6.6640   6.6640  10.6853  10.6853  10.6854  10.6854
    11.3886  11.3886  11.3888  11.3893  11.5598  11.5598

          k = 0.0000 0.2887 0.0000 (  2752 PWs)   bands (ev):

   -34.3372 -34.3372 -34.2901 -34.2901 -15.1119 -15.1119 -14.9581 -14.9581
   -10.9845 -10.9845 -10.7275 -10.7275 -10.6890 -10.6890 -10.5048 -10.5048
     6.4960   6.4960   8.8172   8.8172   9.8030   9.8030  10.2065  10.2065
    11.2079  11.2079  11.7167  11.7168  11.8880  11.8881

          k = 0.0000 0.2887 0.1566 (  2755 PWs)   bands (ev):

   -34.3304 -34.3304 -34.2971 -34.2971 -15.0897 -15.0897 -14.9809 -14.9809
   -10.9449 -10.9449 -10.7429 -10.7429 -10.6877 -10.6877 -10.5336 -10.5336
     6.8078   6.8078   8.6038   8.6038   9.5966   9.5966  10.3123  10.3123
    11.0007  11.0007  11.5390  11.5391  11.9659  11.9660

          k = 0.0000 0.2887-0.3132 (  2744 PWs)   bands (ev):

   -34.3137 -34.3137 -34.3137 -34.3137 -15.0356 -15.0356 -15.0356 -15.0356
   -10.8467 -10.8467 -10.8467 -10.8467 -10.6095 -10.6095 -10.6094 -10.6094
     7.6459   7.6459   7.6459   7.6459  10.0495  10.0495  10.0496  10.0496
    11.0202  11.0202  11.0202  11.0203  12.3244  12.3244

          k = 0.0000-0.5773 0.0000 (  2766 PWs)   bands (ev):

   -34.3067 -34.3067 -34.2860 -34.2860 -15.1237 -15.1237 -15.0663 -15.0663
   -10.9523 -10.9523 -10.9497 -10.9497 -10.8035 -10.8035 -10.5884 -10.5884
     8.1514   8.1514   8.5163   8.5163   8.9061   8.9061  10.0712  10.0712
    11.2154  11.2154  11.3016  11.3017  11.9300  11.9300

          k = 0.0000-0.5773 0.1566 (  2752 PWs)   bands (ev):

   -34.3037 -34.3037 -34.2890 -34.2890 -15.1167 -15.1167 -15.0761 -15.0761
   -10.9866 -10.9866 -10.9674 -10.9674 -10.7370 -10.7370 -10.5952 -10.5952
     7.9216   7.9216   8.4967   8.4967   9.5382   9.5382   9.6520   9.6520
    11.4787  11.4787  11.5919  11.5919  11.7770  11.7770

          k = 0.0000-0.5773-0.3132 (  2768 PWs)   bands (ev):

   -34.2963 -34.2963 -34.2963 -34.2963 -15.0978 -15.0978 -15.0978 -15.0978
   -10.9969 -10.9969 -10.9969 -10.9969 -10.6425 -10.6425 -10.6425 -10.6425
     8.0797   8.0797   8.0797   8.0797   9.8128   9.8128   9.8128   9.8128
    11.5081  11.5081  11.5081  11.5081  12.7092  12.7092

          k = 0.2500 0.1443 0.0000 (  2752 PWs)   bands (ev):

   -34.3372 -34.3372 -34.2901 -34.2901 -15.1119 -15.1119 -14.9581 -14.9581
   -10.9845 -10.9845 -10.7275 -10.7275 -10.6890 -10.6890 -10.5048 -10.5048
     6.4960   6.4960   8.8172   8.8172   9.8030   9.8030  10.2065  10.2065
    11.2079  11.2079  11.7167  11.7168  11.8880  11.8881

          k = 0.2500 0.1443 0.1566 (  2755 PWs)   bands (ev):

   -34.3304 -34.3304 -34.2971 -34.2971 -15.0897 -15.0897 -14.9809 -14.9809
   -10.9449 -10.9449 -10.7429 -10.7429 -10.6877 -10.6877 -10.5336 -10.5336
     6.8078   6.8078   8.6038   8.6038   9.5966   9.5966  10.3123  10.3123
    11.0007  11.0007  11.5391  11.5391  11.9659  11.9659

          k = 0.2500 0.1443-0.3132 (  2744 PWs)   bands (ev):

   -34.3137 -34.3137 -34.3137 -34.3137 -15.0356 -15.0356 -15.0356 -15.0356
   -10.8467 -10.8467 -10.8467 -10.8467 -10.6095 -10.6095 -10.6095 -10.6095
     7.6459   7.6459   7.6459   7.6459  10.0496  10.0496  10.0496  10.0496
    11.0202  11.0202  11.0203  11.0203  12.3243  12.3244

          k = 0.2500 0.4330 0.0000 (  2778 PWs)   bands (ev):

   -34.3068 -34.3068 -34.2858 -34.2858 -15.1249 -15.1249 -15.0613 -15.0613
   -10.9326 -10.9326 -10.8982 -10.8982 -10.8270 -10.8270 -10.6513 -10.6513
     8.3543   8.3543   9.0966   9.0966   9.4446   9.4446   9.5466   9.5466
    10.8248  10.8248  11.3296  11.3296  11.6744  11.6744

          k = 0.2500 0.4330 0.1566 (  2766 PWs)   bands (ev):

   -34.3037 -34.3037 -34.2889 -34.2889 -15.1169 -15.1169 -15.0719 -15.0719
   -10.9864 -10.9864 -10.8962 -10.8962 -10.7793 -10.7793 -10.6400 -10.6400
     8.4184   8.4184   8.9436   8.9436   9.5664   9.5665   9.8707   9.8707
    10.7674  10.7674  10.8417  10.8417  11.7196  11.7196

          k = 0.2500 0.4330-0.3132 (  2748 PWs)   bands (ev):

   -34.2963 -34.2963 -34.2963 -34.2963 -15.0979 -15.0979 -15.0935 -15.0935
   -11.0160 -11.0160 -10.9077 -10.9077 -10.7378 -10.7378 -10.6331 -10.6331
     8.6184   8.6184   8.6832   8.6832   9.9538   9.9538   9.9953   9.9953
    10.5067  10.5068  10.5305  10.5305  12.2436  12.2440

          k =-0.5000-0.2887 0.0000 (  2766 PWs)   bands (ev):

   -34.3067 -34.3067 -34.2860 -34.2860 -15.1237 -15.1237 -15.0663 -15.0663
   -10.9523 -10.9523 -10.9497 -10.9497 -10.8036 -10.8036 -10.5884 -10.5884
     8.1514   8.1514   8.5163   8.5163   8.9061   8.9061  10.0712  10.0712
    11.2154  11.2154  11.3016  11.3016  11.9300  11.9300

          k =-0.5000-0.2887 0.1566 (  2752 PWs)   bands (ev):

   -34.3037 -34.3037 -34.2890 -34.2890 -15.1167 -15.1167 -15.0761 -15.0761
   -10.9866 -10.9866 -10.9674 -10.9674 -10.7370 -10.7370 -10.5952 -10.5952
     7.9216   7.9216   8.4967   8.4967   9.5382   9.5382   9.6520   9.6520
    11.4787  11.4787  11.5919  11.5919  11.7770  11.7770

          k =-0.5000-0.2887-0.3132 (  2768 PWs)   bands (ev):

   -34.2963 -34.2963 -34.2963 -34.2963 -15.0978 -15.0978 -15.0978 -15.0978
   -10.9969 -10.9969 -10.9969 -10.9969 -10.6426 -10.6426 -10.6426 -10.6426
     8.0797   8.0797   8.0797   8.0797   9.8128   9.8128   9.8128   9.8128
    11.5081  11.5081  11.5081  11.5082  12.7092  12.7092

          k =-0.5000 0.0000 0.0000 (  2778 PWs)   bands (ev):

   -34.3068 -34.3068 -34.2858 -34.2858 -15.1249 -15.1249 -15.0613 -15.0613
   -10.9327 -10.9327 -10.8982 -10.8982 -10.8271 -10.8271 -10.6512 -10.6512
     8.3542   8.3542   9.0963   9.0963   9.4447   9.4447   9.5464   9.5464
    10.8248  10.8248  11.3300  11.3300  11.6741  11.6741

          k =-0.5000 0.0000 0.1566 (  2766 PWs)   bands (ev):

   -34.3038 -34.3038 -34.2889 -34.2889 -15.1170 -15.1170 -15.0719 -15.0719
   -10.9864 -10.9864 -10.8961 -10.8961 -10.7794 -10.7794 -10.6400 -10.6400
     8.4184   8.4184   8.9435   8.9435   9.5665   9.5665   9.8703   9.8703
    10.7678  10.7678  10.8418  10.8418  11.7194  11.7194

          k =-0.5000 0.0000-0.3132 (  2748 PWs)   bands (ev):

   -34.2963 -34.2963 -34.2963 -34.2963 -15.0979 -15.0979 -15.0935 -15.0935
   -11.0160 -11.0160 -10.9077 -10.9077 -10.7379 -10.7379 -10.6331 -10.6331
     8.6184   8.6184   8.6832   8.6832   9.9540   9.9540   9.9957   9.9957
    10.5064  10.5064  10.5303  10.5303  12.2432  12.2444

          k =-0.2500 0.1443 0.0000 (  2752 PWs)   bands (ev):

   -34.3372 -34.3372 -34.2901 -34.2901 -15.1119 -15.1119 -14.9581 -14.9581
   -10.9845 -10.9845 -10.7276 -10.7276 -10.6890 -10.6890 -10.5048 -10.5048
     6.4960   6.4960   8.8169   8.8169   9.8025   9.8025  10.2068  10.2068
    11.2081  11.2081  11.7178  11.7178  11.8879  11.8879

          k =-0.2500 0.1443-0.1566 (  2755 PWs)   bands (ev):

   -34.3304 -34.3304 -34.2971 -34.2971 -15.0897 -15.0897 -14.9809 -14.9809
   -10.9449 -10.9449 -10.7429 -10.7429 -10.6877 -10.6877 -10.5336 -10.5336
     6.8078   6.8078   8.6036   8.6036   9.5964   9.5964  10.3124  10.3124
    11.0013  11.0013  11.5394  11.5394  11.9657  11.9657

          k =-0.2500 0.1443 0.3132 (  2744 PWs)   bands (ev):

   -34.3137 -34.3137 -34.3137 -34.3137 -15.0356 -15.0356 -15.0356 -15.0356
   -10.8467 -10.8467 -10.8467 -10.8467 -10.6095 -10.6095 -10.6095 -10.6095
     7.6459   7.6459   7.6459   7.6459  10.0495  10.0495  10.0495  10.0495
    11.0206  11.0206  11.0206  11.0206  12.3245  12.3245

          k =-0.2500 0.4330 0.0000 (  2778 PWs)   bands (ev):

   -34.3068 -34.3068 -34.2858 -34.2858 -15.1249 -15.1249 -15.0613 -15.0613
   -10.9327 -10.9327 -10.8981 -10.8981 -10.8271 -10.8271 -10.6512 -10.6512
     8.3542   8.3542   9.0963   9.0963   9.4448   9.4448   9.5464   9.5464
    10.8249  10.8249  11.3300  11.3300  11.6741  11.6741

          k =-0.2500 0.4330-0.1566 (  2766 PWs)   bands (ev):

   -34.3038 -34.3038 -34.2889 -34.2889 -15.1170 -15.1170 -15.0718 -15.0718
   -10.9864 -10.9864 -10.8961 -10.8961 -10.7794 -10.7794 -10.6400 -10.6400
     8.4184   8.4184   8.9435   8.9435   9.5666   9.5666   9.8702   9.8703
    10.7677  10.7678  10.8418  10.8418  11.7194  11.7194

          k =-0.2500 0.4330 0.3132 (  2748 PWs)   bands (ev):

   -34.2963 -34.2963 -34.2963 -34.2963 -15.0979 -15.0979 -15.0935 -15.0935
   -11.0160 -11.0160 -10.9077 -10.9077 -10.7379 -10.7379 -10.6331 -10.6331
     8.6184   8.6184   8.6832   8.6832   9.9540   9.9540   9.9957   9.9957
    10.5064  10.5064  10.5303  10.5303  12.2434  12.2435

          k = 0.5000-0.2887 0.0000 (  2766 PWs)   bands (ev):

   -34.3067 -34.3067 -34.2859 -34.2859 -15.1238 -15.1238 -15.0663 -15.0663
   -10.9523 -10.9523 -10.9496 -10.9496 -10.8037 -10.8037 -10.5882 -10.5882
     8.1509   8.1509   8.5163   8.5163   8.9054   8.9054  10.0714  10.0714
    11.2167  11.2167  11.3017  11.3017  11.9306  11.9306

          k = 0.5000-0.2887-0.1566 (  2752 PWs)   bands (ev):

   -34.3037 -34.3037 -34.2890 -34.2890 -15.1167 -15.1167 -15.0760 -15.0760
   -10.9866 -10.9866 -10.9674 -10.9674 -10.7372 -10.7372 -10.5952 -10.5952
     7.9215   7.9215   8.4969   8.4969   9.5376   9.5376   9.6519   9.6519
    11.4790  11.4790  11.5925  11.5925  11.7773  11.7773

          k = 0.5000-0.2887 0.3132 (  2768 PWs)   bands (ev):

   -34.2963 -34.2963 -34.2963 -34.2963 -15.0978 -15.0978 -15.0978 -15.0978
   -10.9968 -10.9968 -10.9968 -10.9968 -10.6426 -10.6426 -10.6426 -10.6426
     8.0800   8.0800   8.0800   8.0800   9.8126   9.8126   9.8126   9.8126
    11.5082  11.5082  11.5082  11.5083  12.7091  12.7091

     the Fermi energy is     9.8396 ev

!    total energy              =   -1119.23045910 Ry
     Harris-Foulkes estimate   =   -1119.23045904 Ry
     estimated scf accuracy    <       0.00000015 Ry

     total all-electron energy =    -45121.402165 Ry

     The total energy is the sum of the following terms:

     one-electron contribution =     -27.99267703 Ry
     hartree contribution      =      22.23376911 Ry
     xc contribution           =    -125.57725382 Ry
     ewald contribution        =    -113.86540067 Ry
     one-center paw contrib.   =    -874.02622508 Ry
     smearing contrib. (-TS)   =      -0.00267161 Ry

     convergence has been achieved in   4 iterations

     Writing output data file 2344.save
 
     init_run     :      0.97s CPU      1.73s WALL (       1 calls)
     electrons    :      7.89s CPU      8.24s WALL (       1 calls)

     Called by init_run:
     wfcinit      :      0.66s CPU      0.84s WALL (       1 calls)
     potinit      :      0.13s CPU      0.21s WALL (       1 calls)

     Called by electrons:
     c_bands      :      5.95s CPU      6.16s WALL (       5 calls)
     sum_band     :      1.24s CPU      1.28s WALL (       5 calls)
     v_of_rho     :      0.02s CPU      0.03s WALL (       5 calls)
     newd         :      0.28s CPU      0.33s WALL (       5 calls)
     PAW_pot      :      0.56s CPU      0.61s WALL (       5 calls)
     mix_rho      :      0.01s CPU      0.01s WALL (       5 calls)

     Called by c_bands:
     init_us_2    :      0.05s CPU      0.05s WALL (     330 calls)
     cegterg      :      5.00s CPU      5.21s WALL (     150 calls)

     Called by sum_band:
     sum_band:bec :      0.31s CPU      0.31s WALL (     150 calls)
     addusdens    :      0.13s CPU      0.14s WALL (       5 calls)

     Called by *egterg:
     h_psi        :      3.89s CPU      4.10s WALL (     514 calls)
     s_psi        :      0.28s CPU      0.28s WALL (     514 calls)
     g_psi        :      0.03s CPU      0.03s WALL (     334 calls)
     cdiaghg      :      0.61s CPU      0.76s WALL (     454 calls)

     Called by h_psi:
     h_psi:pot    :      3.86s CPU      4.06s WALL (     514 calls)
     h_psi:calbec :      0.22s CPU      0.25s WALL (     514 calls)
     vloc_psi     :      3.33s CPU      3.50s WALL (     514 calls)
     add_vuspsi   :      0.31s CPU      0.31s WALL (     514 calls)

     General routines
     calbec       :      0.29s CPU      0.32s WALL (     664 calls)
     fft          :      0.03s CPU      0.29s WALL (      97 calls)
     fftw         :      3.33s CPU      3.50s WALL (   59536 calls)
     davcio       :      0.00s CPU      0.01s WALL (      30 calls)
 
     Parallel routines
     fft_scatter  :      1.53s CPU      1.62s WALL (   59633 calls)
 
     PWSCF        :    16.48s CPU        21.56s WALL

 
   This run was terminated on:  11:37:19  30Nov2022            

=------------------------------------------------------------------------------=
   JOB DONE.
=------------------------------------------------------------------------------=
Removing 2344 from /home/shaharpit/tmp
