
     Program PWSCF v.6.1 (svn rev. 13369) starts on 30Nov2022 at 11:36:57 

     This program is part of the open-source Quantum ESPRESSO suite
     for quantum simulation of materials; please cite
         "P. Giannozzi et al., J. Phys.:Condens. Matter 21 395502 (2009);
          URL http://www.quantum-espresso.org", 
     in publications or presentations arising from this work. More details at
     http://www.quantum-espresso.org/quote

     Parallel version (MPI), running on     8 processors
     R & G space division:  proc/nbgrp/npool/nimage =       8
     Reading input from ./GdH2_0.9.in
Warning: card &IONS ignored
Warning: card 	ION_DYNAMICS='BFGS', ignored
Warning: card / ignored
Warning: card &CELL ignored
Warning: card / ignored

     Current dimensions of program PWSCF are:
     Max number of different atomic species (ntypx) = 10
     Max number of k-points (npk) =  40000
     Max angular momentum in pseudopotentials (lmaxx) =  3
               file Gd.rel-pbe-spdn-kjpaw_psl.1.0.0.UPF: wavefunction(s)  5P 5P renormalized
               file H.pbe-kjpaw_psl.0.1.UPF: wavefunction(s)  1S renormalized

     Subspace diagonalization in iterative solution of the eigenvalue problem:
     a serial algorithm will be used

     Found symmetry operation: I + (  0.0000 -0.5000 -0.5000)
     This is a supercell, fractional translations are disabled
 
     Parallelization info
     --------------------
     sticks:   dense  smooth     PW     G-vecs:    dense   smooth      PW
     Min         185     185     54                 5423     5423     856
     Max         186     186     55                 5426     5426     859
     Sum        1481    1481    437                43387    43387    6859
 


     bravais-lattice index     =            0
     lattice parameter (alat)  =       9.6754  a.u.
     unit-cell volume          =     905.7461 (a.u.)^3
     number of atoms/cell      =           12
     number of atomic types    =            2
     number of electrons       =        52.00
     number of Kohn-Sham states=           62
     kinetic-energy cutoff     =      50.0000  Ry
     charge density cutoff     =     200.0000  Ry
     convergence threshold     =      1.0E-06
     mixing beta               =       0.7000
     number of iterations used =            8  plain     mixing
     Exchange-correlation      =  SLA  PW   PBX  PBC ( 1  4  3  4 0 0)
     Non magnetic calculation with spin-orbit


     celldm(1)=   9.675398  celldm(2)=   0.000000  celldm(3)=   0.000000
     celldm(4)=   0.000000  celldm(5)=   0.000000  celldm(6)=   0.000000

     crystal axes: (cart. coord. in units of alat)
               a(1) = (   1.000000   0.000000   0.000000 )  
               a(2) = (   0.000000   1.000000   0.000000 )  
               a(3) = (   0.000000   0.000000   1.000000 )  

     reciprocal axes: (cart. coord. in units 2 pi/alat)
               b(1) = (  1.000000  0.000000  0.000000 )  
               b(2) = (  0.000000  1.000000  0.000000 )  
               b(3) = (  0.000000  0.000000  1.000000 )  


     PseudoPot. # 1 for Gd read from file:
     /home/shaharpit/MeamGdH/dft/qe_potentials/Gd.rel-pbe-spdn-kjpaw_psl.1.0.0.UPF
     MD5 check sum: cf50ec46d1536b4a0251694df1946a53
     Pseudo is Projector augmented-wave + core cor, Zval = 11.0
     Generated using "atomic" code by A. Dal Corso  v.6.2.2
     Shape of augmentation charge: PSQ
     Using radial grid of 1263 points, 10 beta functions with: 
                l(1) =   0
                l(2) =   0
                l(3) =   1
                l(4) =   1
                l(5) =   1
                l(6) =   1
                l(7) =   2
                l(8) =   2
                l(9) =   2
               l(10) =   2
     Q(r) pseudized with 0 coefficients 


     PseudoPot. # 2 for  H read from file:
     /home/shaharpit/MeamGdH/dft/qe_potentials/H.pbe-kjpaw_psl.0.1.UPF
     MD5 check sum: fbb168fef676c0aaadbafd73f5b1efa8
     Pseudo is Projector augmented-wave, Zval =  1.0
     Generated using "atomic" code by A. Dal Corso  v.5.0.2 svn rev. 9415
     Shape of augmentation charge: PSQ
     Using radial grid of  929 points,  2 beta functions with: 
                l(1) =   0
                l(2) =   0
     Q(r) pseudized with 0 coefficients 


     atomic species   valence    mass     pseudopotential
        Gd            11.00   157.25000     Gd( 1.00)
        H              1.00     1.00794      H( 1.00)

     48 Sym. Ops., with inversion, found



   Cartesian axes

     site n.     atom                  positions (alat units)
         1           Gd  tau(   1) = (   0.0000000   0.0000000   0.0000000  )
         2           Gd  tau(   2) = (   0.0000000   0.5000000   0.5000000  )
         3           Gd  tau(   3) = (   0.5000000   0.0000000   0.5000000  )
         4           Gd  tau(   4) = (   0.5000000   0.5000000   0.0000000  )
         5           H   tau(   5) = (   0.2500000   0.2500000   0.2500000  )
         6           H   tau(   6) = (   0.2500000   0.7500000   0.7500000  )
         7           H   tau(   7) = (   0.7500000   0.2500000   0.7500000  )
         8           H   tau(   8) = (   0.7500000   0.7500000   0.2500000  )
         9           H   tau(   9) = (   0.2500000   0.7500000   0.2500000  )
        10           H   tau(  10) = (   0.2500000   0.2500000   0.7500000  )
        11           H   tau(  11) = (   0.7500000   0.7500000   0.7500000  )
        12           H   tau(  12) = (   0.7500000   0.2500000   0.2500000  )

     number of k points=    10  gaussian smearing, width (Ry)=  0.0100
                       cart. coord. in units 2pi/alat
        k(    1) = (   0.0000000   0.0000000   0.0000000), wk =   0.0156250
        k(    2) = (   0.0000000   0.0000000   0.2500000), wk =   0.0937500
        k(    3) = (   0.0000000   0.0000000  -0.5000000), wk =   0.0468750
        k(    4) = (   0.0000000   0.2500000   0.2500000), wk =   0.1875000
        k(    5) = (   0.0000000   0.2500000  -0.5000000), wk =   0.1875000
        k(    6) = (   0.0000000  -0.5000000  -0.5000000), wk =   0.0468750
        k(    7) = (   0.2500000   0.2500000   0.2500000), wk =   0.1250000
        k(    8) = (   0.2500000   0.2500000  -0.5000000), wk =   0.1875000
        k(    9) = (   0.2500000  -0.5000000  -0.5000000), wk =   0.0937500
        k(   10) = (  -0.5000000  -0.5000000  -0.5000000), wk =   0.0156250

     Dense  grid:    43387 G-vectors     FFT dimensions: (  45,  45,  45)

     Estimated max dynamical RAM per process >      37.48MB

     Estimated total allocated dynamical RAM >     299.83MB

     Initial potential from superposition of free atoms

     starting charge   51.92374, renormalised to   52.00000
     Starting wfc are  120 randomized atomic wfcs
     Checking if some PAW data can be deallocated... 

     total cpu time spent up to now is        4.6 secs

     per-process dynamical memory:    74.9 Mb

     Self-consistent Calculation

     iteration #  1     ecut=    50.00 Ry     beta=0.70
     Davidson diagonalization with overlap
     ethr =  1.00E-02,  avg # of iterations =  2.1

     total cpu time spent up to now is        8.3 secs

     total energy              =   -2248.30469879 Ry
     Harris-Foulkes estimate   =   -2248.63550806 Ry
     estimated scf accuracy    <       0.59571328 Ry

     iteration #  2     ecut=    50.00 Ry     beta=0.70
     Davidson diagonalization with overlap
     ethr =  1.15E-03,  avg # of iterations =  2.5

     total cpu time spent up to now is       11.3 secs

     total energy              =   -2248.40312599 Ry
     Harris-Foulkes estimate   =   -2248.40649054 Ry
     estimated scf accuracy    <       0.00590377 Ry

     iteration #  3     ecut=    50.00 Ry     beta=0.70
     Davidson diagonalization with overlap
     ethr =  1.14E-05,  avg # of iterations =  2.9

     total cpu time spent up to now is       17.0 secs

     total energy              =   -2248.40549235 Ry
     Harris-Foulkes estimate   =   -2248.40548341 Ry
     estimated scf accuracy    <       0.00019815 Ry

     iteration #  4     ecut=    50.00 Ry     beta=0.70
     Davidson diagonalization with overlap
     ethr =  3.81E-07,  avg # of iterations =  3.5

     total cpu time spent up to now is       34.8 secs

     total energy              =   -2248.40553817 Ry
     Harris-Foulkes estimate   =   -2248.40554968 Ry
     estimated scf accuracy    <       0.00002569 Ry

     iteration #  5     ecut=    50.00 Ry     beta=0.70
     Davidson diagonalization with overlap
     ethr =  4.94E-08,  avg # of iterations =  2.6

     total cpu time spent up to now is       37.6 secs

     total energy              =   -2248.40554330 Ry
     Harris-Foulkes estimate   =   -2248.40554363 Ry
     estimated scf accuracy    <       0.00000366 Ry

     iteration #  6     ecut=    50.00 Ry     beta=0.70
     Davidson diagonalization with overlap
     ethr =  7.04E-09,  avg # of iterations =  2.8

     total cpu time spent up to now is       40.9 secs

     total energy              =   -2248.40554421 Ry
     Harris-Foulkes estimate   =   -2248.40554494 Ry
     estimated scf accuracy    <       0.00000128 Ry

     iteration #  7     ecut=    50.00 Ry     beta=0.70
     Davidson diagonalization with overlap
     ethr =  2.46E-09,  avg # of iterations =  2.0

     total cpu time spent up to now is       44.2 secs

     End of self-consistent calculation

          k = 0.0000 0.0000 0.0000 (  5449 PWs)   bands (ev):

   -32.9929 -32.9929 -32.8951 -32.8951 -32.8951 -32.8951 -32.8951 -32.8951
   -13.8577 -13.8577 -13.8577 -13.8577 -13.8577 -13.8577 -13.5195 -13.5195
    -9.9040  -9.9040  -9.9039  -9.9039  -9.9039  -9.9039  -9.4565  -9.4565
    -9.4565  -9.4565  -9.4564  -9.4564  -9.1307  -9.1307  -9.1307  -9.1307
     2.6660   2.6660   5.3425   5.3425   5.3425   5.3425   5.3425   5.3425
     7.5657   7.5657   7.5657   7.5657   7.5657   7.5657   8.6246   8.6246
     8.6246   8.6246   8.6246   8.6246   9.3874   9.3874  11.9290  11.9290
    11.9290  11.9290  12.0907  12.0907  14.8659  14.8659

          k = 0.0000 0.0000 0.2500 (  5430 PWs)   bands (ev):

   -32.9786 -32.9786 -32.9095 -32.9095 -32.8950 -32.8950 -32.8950 -32.8950
   -13.8551 -13.8551 -13.8551 -13.8551 -13.8093 -13.8093 -13.5702 -13.5702
    -9.8679  -9.8679  -9.8678  -9.8678  -9.8066  -9.8066  -9.5120  -9.5120
    -9.5120  -9.5120  -9.4101  -9.4101  -9.2629  -9.2629  -9.1798  -9.1798
     3.1946   3.1946   5.6373   5.6373   5.6373   5.6373   5.6636   5.6636
     6.3231   6.3231   7.2115   7.2115   7.2115   7.2115   8.1110   8.1110
     9.1011   9.1011   9.1012   9.1012   9.7561   9.7561  12.2506  12.2506
    12.3864  12.3864  13.8168  13.8168  13.8192  13.8192

          k = 0.0000 0.0000-0.5000 (  5406 PWs)   bands (ev):

   -32.9441 -32.9441 -32.9441 -32.9441 -32.8950 -32.8950 -32.8950 -32.8950
   -13.8525 -13.8525 -13.8525 -13.8525 -13.6909 -13.6909 -13.6909 -13.6909
    -9.8151  -9.8151  -9.8151  -9.8151  -9.5842  -9.5842  -9.5842  -9.5842
    -9.5519  -9.5519  -9.5518  -9.5518  -9.2963  -9.2963  -9.2963  -9.2963
     4.5779   4.5779   4.5779   4.5779   6.2584   6.2584   6.2584   6.2584
     6.5346   6.5346   6.5346   6.5346   6.6130   6.6130   6.6130   6.6130
     9.8164   9.8164   9.8164   9.8164  11.6301  11.6301  11.6301  11.6301
    13.0009  13.0009  13.0010  13.0012  13.2540  13.2541

          k = 0.0000 0.2500 0.2500 (  5393 PWs)   bands (ev):

   -32.9664 -32.9664 -32.9073 -32.9073 -32.9073 -32.9073 -32.8971 -32.8971
   -13.8480 -13.8480 -13.8157 -13.8157 -13.8157 -13.8157 -13.6143 -13.6143
    -9.8493  -9.8493  -9.8020  -9.8020  -9.8020  -9.8020  -9.5168  -9.5168
    -9.4493  -9.4493  -9.4493  -9.4493  -9.3950  -9.3950  -9.1948  -9.1948
     3.6369   3.6369   5.7490   5.7490   5.8796   5.8796   5.8796   5.8796
     6.3074   6.3074   6.3074   6.3074   7.0003   7.0003   7.5709   7.5709
     9.5397   9.5397   9.9256   9.9256   9.9257   9.9257  12.2339  12.2339
    12.5417  12.5417  13.8842  13.8843  14.1478  14.1479

          k = 0.0000 0.2500-0.5000 (  5390 PWs)   bands (ev):

   -32.9369 -32.9369 -32.9369 -32.9369 -32.9021 -32.9021 -32.9021 -32.9021
   -13.8316 -13.8316 -13.8316 -13.8316 -13.7174 -13.7174 -13.7174 -13.7174
    -9.8119  -9.8119  -9.8118  -9.8118  -9.6212  -9.6212  -9.6211  -9.6211
    -9.5072  -9.5072  -9.5072  -9.5072  -9.3085  -9.3085  -9.3085  -9.3085
     4.8064   4.8064   4.8064   4.8064   6.0199   6.0199   6.0199   6.0199
     6.4907   6.4907   6.4907   6.4907   6.6137   6.6137   6.6137   6.6137
    10.1938  10.1938  10.1939  10.1939  11.4604  11.4604  11.4604  11.4604
    13.3582  13.3583  13.3628  13.3629  13.3629  13.3629

          k = 0.0000-0.5000-0.5000 (  5440 PWs)   bands (ev):

   -32.9195 -32.9195 -32.9195 -32.9195 -32.9195 -32.9195 -32.9195 -32.9195
   -13.7773 -13.7773 -13.7773 -13.7773 -13.7773 -13.7773 -13.7773 -13.7773
    -9.7436  -9.7436  -9.7436  -9.7436  -9.7436  -9.7436  -9.7436  -9.7436
    -9.3814  -9.3814  -9.3814  -9.3814  -9.3813  -9.3813  -9.3813  -9.3813
     5.3784   5.3784   5.3784   5.3784   5.3784   5.3784   5.3784   5.3784
     6.5685   6.5685   6.5685   6.5685   6.5685   6.5685   6.5685   6.5685
    11.0139  11.0139  11.0140  11.0140  11.0140  11.0140  11.0140  11.0140
    13.2988  13.2989  13.2989  13.2990  13.2991  13.2992

          k = 0.2500 0.2500 0.2500 (  5395 PWs)   bands (ev):

   -32.9563 -32.9563 -32.9072 -32.9072 -32.9072 -32.9072 -32.9072 -32.9072
   -13.8176 -13.8176 -13.8176 -13.8176 -13.8176 -13.8176 -13.6524 -13.6524
    -9.8158  -9.8158  -9.8158  -9.8158  -9.8158  -9.8158  -9.5117  -9.5117
    -9.4367  -9.4367  -9.4367  -9.4367  -9.4366  -9.4366  -9.1916  -9.1916
     3.9420   3.9420   5.5733   5.5733   5.5733   5.5733   5.5733   5.5733
     6.7248   6.7248   6.7248   6.7248   6.7248   6.7248   7.3474   7.3474
    10.1936  10.1936  10.1936  10.1936  10.1936  10.1936  12.2786  12.2786
    12.4791  12.4791  13.4910  13.4910  13.4910  13.4910

          k = 0.2500 0.2500-0.5000 (  5420 PWs)   bands (ev):

   -32.9317 -32.9317 -32.9317 -32.9317 -32.9071 -32.9071 -32.9071 -32.9071
   -13.8195 -13.8195 -13.8195 -13.8195 -13.7388 -13.7388 -13.7388 -13.7388
    -9.8285  -9.8285  -9.8285  -9.8285  -9.6953  -9.6953  -9.6953  -9.6953
    -9.4252  -9.4252  -9.4252  -9.4252  -9.2826  -9.2826  -9.2826  -9.2826
     4.7466   4.7466   4.7466   4.7466   5.4186   5.4186   5.4187   5.4187
     6.8952   6.8952   6.8952   6.8952   6.9835   6.9835   6.9835   6.9835
    10.5871  10.5871  10.5872  10.5872  11.6009  11.6009  11.6009  11.6010
    12.6240  12.6240  12.6240  12.6241  12.9434  12.9434

          k = 0.2500-0.5000-0.5000 (  5452 PWs)   bands (ev):

   -32.9194 -32.9194 -32.9194 -32.9194 -32.9194 -32.9194 -32.9194 -32.9194
   -13.7839 -13.7839 -13.7839 -13.7839 -13.7839 -13.7839 -13.7839 -13.7839
    -9.7974  -9.7974  -9.7974  -9.7974  -9.7974  -9.7974  -9.7973  -9.7973
    -9.3099  -9.3099  -9.3099  -9.3099  -9.3099  -9.3099  -9.3099  -9.3099
     4.8834   4.8834   4.8834   4.8834   4.8834   4.8834   4.8834   4.8834
     7.1984   7.1984   7.1984   7.1984   7.1984   7.1984   7.1984   7.1984
    11.4217  11.4217  11.4217  11.4217  11.4217  11.4217  11.4217  11.4217
    12.4406  12.4406  12.4406  12.4406  12.4406  12.4406

          k =-0.5000-0.5000-0.5000 (  5400 PWs)   bands (ev):

   -32.9193 -32.9193 -32.9193 -32.9193 -32.9193 -32.9193 -32.9193 -32.9193
   -13.7905 -13.7905 -13.7905 -13.7905 -13.7905 -13.7905 -13.7905 -13.7905
    -9.8383  -9.8383  -9.8382  -9.8382  -9.8382  -9.8382  -9.8382  -9.8382
    -9.2513  -9.2513  -9.2513  -9.2513  -9.2512  -9.2512  -9.2512  -9.2512
     4.5723   4.5723   4.5723   4.5723   4.5723   4.5723   4.5723   4.5723
     7.6522   7.6522   7.6522   7.6522   7.6522   7.6522   7.6522   7.6522
    11.9460  11.9460  11.9460  11.9460  11.9460  11.9460  11.9463  11.9464
    12.1338  12.1338  12.1338  12.1338  12.1338  12.1338

     the Fermi energy is    10.6399 ev

!    total energy              =   -2248.40554447 Ry
     Harris-Foulkes estimate   =   -2248.40554448 Ry
     estimated scf accuracy    <          1.6E-09 Ry

     total all-electron energy =    -90252.748921 Ry

     The total energy is the sum of the following terms:

     one-electron contribution =     -34.84730819 Ry
     hartree contribution      =      40.90072024 Ry
     xc contribution           =    -257.74856981 Ry
     ewald contribution        =    -248.63171355 Ry
     one-center paw contrib.   =   -1748.07685224 Ry
     smearing contrib. (-TS)   =      -0.00182092 Ry

     convergence has been achieved in   7 iterations

     Writing output data file 2348.save
 
     init_run     :      2.52s CPU      3.11s WALL (       1 calls)
     electrons    :     24.61s CPU     41.88s WALL (       1 calls)

     Called by init_run:
     wfcinit      :      1.54s CPU      1.65s WALL (       1 calls)
     potinit      :      0.73s CPU      0.80s WALL (       1 calls)

     Called by electrons:
     c_bands      :     17.90s CPU     32.50s WALL (       7 calls)
     sum_band     :      2.75s CPU      2.95s WALL (       7 calls)
     v_of_rho     :      0.06s CPU      0.07s WALL (       8 calls)
     newd         :      0.80s CPU      0.91s WALL (       8 calls)
     PAW_pot      :      3.57s CPU      3.64s WALL (       8 calls)
     mix_rho      :      0.06s CPU      0.07s WALL (       7 calls)

     Called by c_bands:
     init_us_2    :      0.08s CPU      0.08s WALL (     150 calls)
     cegterg      :     16.16s CPU     17.00s WALL (      70 calls)

     Called by sum_band:
     sum_band:bec :      0.31s CPU      0.31s WALL (      70 calls)
     addusdens    :      0.30s CPU      0.39s WALL (       7 calls)

     Called by *egterg:
     h_psi        :     11.75s CPU     12.48s WALL (     264 calls)
     s_psi        :      0.95s CPU      0.95s WALL (     264 calls)
     g_psi        :      0.06s CPU      0.06s WALL (     184 calls)
     cdiaghg      :      1.73s CPU      1.74s WALL (     254 calls)

     Called by h_psi:
     h_psi:pot    :     11.66s CPU     12.39s WALL (     264 calls)
     h_psi:calbec :      0.90s CPU      0.97s WALL (     264 calls)
     vloc_psi     :      9.80s CPU     10.47s WALL (     264 calls)
     add_vuspsi   :      0.95s CPU      0.95s WALL (     264 calls)

     General routines
     calbec       :      1.16s CPU      1.24s WALL (     334 calls)
     fft          :      0.11s CPU      0.31s WALL (     148 calls)
     fftw         :     10.35s CPU     11.07s WALL (   59748 calls)
     davcio       :      0.00s CPU      0.01s WALL (      10 calls)
 
     Parallel routines
     fft_scatter  :      4.48s CPU      5.07s WALL (   59896 calls)
 
     PWSCF        :  0m28.09s CPU     1m36.22s WALL

 
   This run was terminated on:  11:38:33  30Nov2022            

=------------------------------------------------------------------------------=
   JOB DONE.
=------------------------------------------------------------------------------=
Removing 2348 from /home/shaharpit/tmp
