
     Program PWSCF v.6.1 (svn rev. 13369) starts on 30Nov2022 at 11:36:57 

     This program is part of the open-source Quantum ESPRESSO suite
     for quantum simulation of materials; please cite
         "P. Giannozzi et al., J. Phys.:Condens. Matter 21 395502 (2009);
          URL http://www.quantum-espresso.org", 
     in publications or presentations arising from this work. More details at
     http://www.quantum-espresso.org/quote

     Parallel version (MPI), running on     8 processors
     R & G space division:  proc/nbgrp/npool/nimage =       8
     Reading input from ./GdH2_0.8.in
Warning: card &IONS ignored
Warning: card 	ION_DYNAMICS='BFGS', ignored
Warning: card / ignored
Warning: card &CELL ignored
Warning: card / ignored

     Current dimensions of program PWSCF are:
     Max number of different atomic species (ntypx) = 10
     Max number of k-points (npk) =  40000
     Max angular momentum in pseudopotentials (lmaxx) =  3
               file Gd.rel-pbe-spdn-kjpaw_psl.1.0.0.UPF: wavefunction(s)  5P 5P renormalized
               file H.pbe-kjpaw_psl.0.1.UPF: wavefunction(s)  1S renormalized

     Subspace diagonalization in iterative solution of the eigenvalue problem:
     a serial algorithm will be used

     Found symmetry operation: I + (  0.0000 -0.5000 -0.5000)
     This is a supercell, fractional translations are disabled
 
     Parallelization info
     --------------------
     sticks:   dense  smooth     PW     G-vecs:    dense   smooth      PW
     Min         171     171     50                 4811     4811     754
     Max         172     172     51                 4814     4814     757
     Sum        1369    1369    405                38497    38497    6043
 


     bravais-lattice index     =            0
     lattice parameter (alat)  =       9.3029  a.u.
     unit-cell volume          =     805.1182 (a.u.)^3
     number of atoms/cell      =           12
     number of atomic types    =            2
     number of electrons       =        52.00
     number of Kohn-Sham states=           62
     kinetic-energy cutoff     =      50.0000  Ry
     charge density cutoff     =     200.0000  Ry
     convergence threshold     =      1.0E-06
     mixing beta               =       0.7000
     number of iterations used =            8  plain     mixing
     Exchange-correlation      =  SLA  PW   PBX  PBC ( 1  4  3  4 0 0)
     Non magnetic calculation with spin-orbit


     celldm(1)=   9.302933  celldm(2)=   0.000000  celldm(3)=   0.000000
     celldm(4)=   0.000000  celldm(5)=   0.000000  celldm(6)=   0.000000

     crystal axes: (cart. coord. in units of alat)
               a(1) = (   1.000000   0.000000   0.000000 )  
               a(2) = (   0.000000   1.000000   0.000000 )  
               a(3) = (   0.000000   0.000000   1.000000 )  

     reciprocal axes: (cart. coord. in units 2 pi/alat)
               b(1) = (  1.000000  0.000000  0.000000 )  
               b(2) = (  0.000000  1.000000  0.000000 )  
               b(3) = (  0.000000  0.000000  1.000000 )  


     PseudoPot. # 1 for Gd read from file:
     /home/shaharpit/MeamGdH/dft/qe_potentials/Gd.rel-pbe-spdn-kjpaw_psl.1.0.0.UPF
     MD5 check sum: cf50ec46d1536b4a0251694df1946a53
     Pseudo is Projector augmented-wave + core cor, Zval = 11.0
     Generated using "atomic" code by A. Dal Corso  v.6.2.2
     Shape of augmentation charge: PSQ
     Using radial grid of 1263 points, 10 beta functions with: 
                l(1) =   0
                l(2) =   0
                l(3) =   1
                l(4) =   1
                l(5) =   1
                l(6) =   1
                l(7) =   2
                l(8) =   2
                l(9) =   2
               l(10) =   2
     Q(r) pseudized with 0 coefficients 


     PseudoPot. # 2 for  H read from file:
     /home/shaharpit/MeamGdH/dft/qe_potentials/H.pbe-kjpaw_psl.0.1.UPF
     MD5 check sum: fbb168fef676c0aaadbafd73f5b1efa8
     Pseudo is Projector augmented-wave, Zval =  1.0
     Generated using "atomic" code by A. Dal Corso  v.5.0.2 svn rev. 9415
     Shape of augmentation charge: PSQ
     Using radial grid of  929 points,  2 beta functions with: 
                l(1) =   0
                l(2) =   0
     Q(r) pseudized with 0 coefficients 


     atomic species   valence    mass     pseudopotential
        Gd            11.00   157.25000     Gd( 1.00)
        H              1.00     1.00794      H( 1.00)

     48 Sym. Ops., with inversion, found



   Cartesian axes

     site n.     atom                  positions (alat units)
         1           Gd  tau(   1) = (   0.0000000   0.0000000   0.0000000  )
         2           Gd  tau(   2) = (   0.0000000   0.5000000   0.5000000  )
         3           Gd  tau(   3) = (   0.5000000   0.0000000   0.5000000  )
         4           Gd  tau(   4) = (   0.5000000   0.5000000   0.0000000  )
         5           H   tau(   5) = (   0.2500000   0.2500000   0.2500000  )
         6           H   tau(   6) = (   0.2500000   0.7500000   0.7500000  )
         7           H   tau(   7) = (   0.7500000   0.2500000   0.7500000  )
         8           H   tau(   8) = (   0.7500000   0.7500000   0.2500000  )
         9           H   tau(   9) = (   0.2500000   0.7500000   0.2500000  )
        10           H   tau(  10) = (   0.2500000   0.2500000   0.7500000  )
        11           H   tau(  11) = (   0.7500000   0.7500000   0.7500000  )
        12           H   tau(  12) = (   0.7500000   0.2500000   0.2500000  )

     number of k points=    10  gaussian smearing, width (Ry)=  0.0100
                       cart. coord. in units 2pi/alat
        k(    1) = (   0.0000000   0.0000000   0.0000000), wk =   0.0156250
        k(    2) = (   0.0000000   0.0000000   0.2500000), wk =   0.0937500
        k(    3) = (   0.0000000   0.0000000  -0.5000000), wk =   0.0468750
        k(    4) = (   0.0000000   0.2500000   0.2500000), wk =   0.1875000
        k(    5) = (   0.0000000   0.2500000  -0.5000000), wk =   0.1875000
        k(    6) = (   0.0000000  -0.5000000  -0.5000000), wk =   0.0468750
        k(    7) = (   0.2500000   0.2500000   0.2500000), wk =   0.1250000
        k(    8) = (   0.2500000   0.2500000  -0.5000000), wk =   0.1875000
        k(    9) = (   0.2500000  -0.5000000  -0.5000000), wk =   0.0937500
        k(   10) = (  -0.5000000  -0.5000000  -0.5000000), wk =   0.0156250

     Dense  grid:    38497 G-vectors     FFT dimensions: (  45,  45,  45)

     Estimated max dynamical RAM per process >      33.76MB

     Estimated total allocated dynamical RAM >     270.07MB

     Initial potential from superposition of free atoms

     starting charge   51.92374, renormalised to   52.00000
     Starting wfc are  120 randomized atomic wfcs
     Checking if some PAW data can be deallocated... 

     total cpu time spent up to now is        5.0 secs

     per-process dynamical memory:    71.4 Mb

     Self-consistent Calculation

     iteration #  1     ecut=    50.00 Ry     beta=0.70
     Davidson diagonalization with overlap
     ethr =  1.00E-02,  avg # of iterations =  2.1

     total cpu time spent up to now is        8.1 secs

     total energy              =   -2248.20185233 Ry
     Harris-Foulkes estimate   =   -2248.54475381 Ry
     estimated scf accuracy    <       0.63014504 Ry

     iteration #  2     ecut=    50.00 Ry     beta=0.70
     Davidson diagonalization with overlap
     ethr =  1.21E-03,  avg # of iterations =  2.3

     total cpu time spent up to now is       11.5 secs

     total energy              =   -2248.29763540 Ry
     Harris-Foulkes estimate   =   -2248.29974976 Ry
     estimated scf accuracy    <       0.00419632 Ry

     iteration #  3     ecut=    50.00 Ry     beta=0.70
     Davidson diagonalization with overlap
     ethr =  8.07E-06,  avg # of iterations =  3.4

     total cpu time spent up to now is       15.4 secs

     total energy              =   -2248.29960100 Ry
     Harris-Foulkes estimate   =   -2248.29962055 Ry
     estimated scf accuracy    <       0.00020562 Ry

     iteration #  4     ecut=    50.00 Ry     beta=0.70
     Davidson diagonalization with overlap
     ethr =  3.95E-07,  avg # of iterations =  2.9

     total cpu time spent up to now is       18.5 secs

     total energy              =   -2248.29964287 Ry
     Harris-Foulkes estimate   =   -2248.29965338 Ry
     estimated scf accuracy    <       0.00002283 Ry

     iteration #  5     ecut=    50.00 Ry     beta=0.70
     Davidson diagonalization with overlap
     ethr =  4.39E-08,  avg # of iterations =  2.0

     total cpu time spent up to now is       35.1 secs

     total energy              =   -2248.29964521 Ry
     Harris-Foulkes estimate   =   -2248.29964622 Ry
     estimated scf accuracy    <       0.00000318 Ry

     iteration #  6     ecut=    50.00 Ry     beta=0.70
     Davidson diagonalization with overlap
     ethr =  6.11E-09,  avg # of iterations =  2.2

     total cpu time spent up to now is       38.1 secs

     total energy              =   -2248.29964615 Ry
     Harris-Foulkes estimate   =   -2248.29964672 Ry
     estimated scf accuracy    <       0.00000115 Ry

     iteration #  7     ecut=    50.00 Ry     beta=0.70
     Davidson diagonalization with overlap
     ethr =  2.22E-09,  avg # of iterations =  2.1

     total cpu time spent up to now is       41.1 secs

     End of self-consistent calculation

          k = 0.0000 0.0000 0.0000 (  4801 PWs)   bands (ev):

   -31.1253 -31.1253 -30.9585 -30.9585 -30.9585 -30.9585 -30.9583 -30.9583
   -12.0741 -12.0741 -12.0741 -12.0741 -12.0739 -12.0739 -11.5539 -11.5539
    -8.2646  -8.2646  -8.2644  -8.2644  -8.2644  -8.2644  -7.6195  -7.6195
    -7.6195  -7.6195  -7.6195  -7.6195  -7.1502  -7.1502  -7.1502  -7.1502
     3.8796   3.8796   6.3991   6.3991   6.3991   6.3991   6.3991   6.3991
     9.5069   9.5069   9.5069   9.5069   9.5069   9.5069   9.8234   9.8234
     9.8234   9.8234   9.8234   9.8234  10.8933  10.8933  13.5053  13.5053
    13.5053  13.5053  13.6704  13.6704  16.8595  16.8595

          k = 0.0000 0.0000 0.2500 (  4817 PWs)   bands (ev):

   -31.1011 -31.1011 -30.9831 -30.9831 -30.9584 -30.9584 -30.9582 -30.9582
   -12.0674 -12.0674 -12.0673 -12.0673 -11.9997 -11.9997 -11.6318 -11.6318
    -8.2208  -8.2208  -8.2207  -8.2207  -8.1308  -8.1308  -7.7048  -7.7048
    -7.7047  -7.7047  -7.5535  -7.5535  -7.3506  -7.3506  -7.2218  -7.2218
     4.5134   4.5134   6.7506   6.7506   6.8108   6.8108   6.8108   6.8108
     8.0390   8.0390   9.0009   9.0009   9.0009   9.0009   9.4463   9.4463
    10.3715  10.3715  10.3715  10.3715  11.1301  11.1301  13.8843  13.8843
    14.0286  14.0286  15.5968  15.5968  15.6344  15.6345

          k = 0.0000 0.0000-0.5000 (  4828 PWs)   bands (ev):

   -31.0424 -31.0424 -31.0423 -31.0423 -30.9582 -30.9582 -30.9581 -30.9581
   -12.0606 -12.0606 -12.0605 -12.0605 -11.8176 -11.8176 -11.8174 -11.8174
    -8.1553  -8.1553  -8.1551  -8.1551  -7.8116  -7.8116  -7.8115  -7.8115
    -7.7731  -7.7731  -7.7730  -7.7730  -7.3905  -7.3905  -7.3903  -7.3903
     6.1182   6.1182   6.1183   6.1183   7.6924   7.6924   7.6924   7.6924
     7.7922   7.7922   7.7922   7.7922   8.0349   8.0349   8.0349   8.0349
    11.1863  11.1863  11.1864  11.1864  13.1211  13.1211  13.1212  13.1212
    14.8042  14.8043  14.8044  14.8046  15.0472  15.0476

          k = 0.0000 0.2500 0.2500 (  4801 PWs)   bands (ev):

   -31.0803 -31.0803 -30.9794 -30.9794 -30.9793 -30.9793 -30.9618 -30.9618
   -12.0559 -12.0559 -12.0084 -12.0084 -12.0083 -12.0083 -11.7005 -11.7005
    -8.2014  -8.2014  -8.1281  -8.1281  -8.1280  -8.1280  -7.7095  -7.7095
    -7.6140  -7.6140  -7.6139  -7.6139  -7.5446  -7.5446  -7.2433  -7.2433
     5.0227   5.0227   7.0012   7.0012   7.0788   7.0788   7.0788   7.0788
     7.9850   7.9850   7.9850   7.9850   8.6935   8.6935   8.8822   8.8822
    10.8835  10.8835  11.2700  11.2700  11.2700  11.2700  13.8651  13.8651
    14.1841  14.1841  15.6864  15.6865  16.0819  16.0820

          k = 0.0000 0.2500-0.5000 (  4810 PWs)   bands (ev):

   -31.0300 -31.0300 -31.0299 -31.0299 -30.9705 -30.9705 -30.9703 -30.9703
   -12.0309 -12.0309 -12.0307 -12.0307 -11.8593 -11.8593 -11.8592 -11.8592
    -8.1508  -8.1508  -8.1507  -8.1507  -7.8714  -7.8714  -7.8713  -7.8713
    -7.6972  -7.6972  -7.6972  -7.6972  -7.4094  -7.4094  -7.4093  -7.4093
     6.3416   6.3416   6.3416   6.3416   7.4746   7.4746   7.4746   7.4746
     7.8642   7.8642   7.8642   7.8642   7.9599   7.9599   7.9599   7.9599
    11.6051  11.6051  11.6052  11.6052  12.9472  12.9472  12.9473  12.9473
    15.1465  15.1465  15.1465  15.1466  15.1662  15.1663

          k = 0.0000-0.5000-0.5000 (  4812 PWs)   bands (ev):

   -31.0002 -31.0002 -31.0002 -31.0002 -31.0002 -31.0002 -30.9999 -30.9999
   -11.9511 -11.9511 -11.9511 -11.9511 -11.9511 -11.9511 -11.9508 -11.9508
    -8.0498  -8.0498  -8.0497  -8.0497  -8.0496  -8.0496  -8.0496  -8.0496
    -7.5140  -7.5140  -7.5140  -7.5140  -7.5139  -7.5139  -7.5139  -7.5139
     6.8810   6.8810   6.8810   6.8810   6.8810   6.8810   6.8810   6.8810
     7.9503   7.9503   7.9503   7.9503   7.9503   7.9503   7.9503   7.9503
    12.5066  12.5066  12.5066  12.5066  12.5066  12.5066  12.5067  12.5067
    15.0329  15.0329  15.0330  15.0331  15.0331  15.0333

          k = 0.2500 0.2500 0.2500 (  4794 PWs)   bands (ev):

   -31.0630 -31.0630 -30.9792 -30.9792 -30.9792 -30.9792 -30.9790 -30.9790
   -12.0125 -12.0125 -12.0125 -12.0125 -12.0123 -12.0123 -11.7612 -11.7612
    -8.1479  -8.1479  -8.1478  -8.1478  -8.1478  -8.1478  -7.7112  -7.7112
    -7.5957  -7.5957  -7.5957  -7.5957  -7.5956  -7.5956  -7.2372  -7.2372
     5.3197   5.3197   6.8523   6.8523   6.8523   6.8523   6.8523   6.8523
     8.3638   8.3638   8.3638   8.3638   8.3638   8.3638   8.7320   8.7320
    11.5685  11.5685  11.5686  11.5686  11.5686  11.5686  13.9006  13.9006
    14.1039  14.1039  15.2855  15.2855  15.2855  15.2855

          k = 0.2500 0.2500-0.5000 (  4806 PWs)   bands (ev):

   -31.0211 -31.0211 -31.0210 -31.0210 -30.9790 -30.9790 -30.9789 -30.9789
   -12.0166 -12.0166 -12.0164 -12.0164 -11.8954 -11.8954 -11.8953 -11.8953
    -8.1657  -8.1657  -8.1656  -8.1656  -7.9717  -7.9717  -7.9716  -7.9716
    -7.5795  -7.5795  -7.5794  -7.5794  -7.3710  -7.3710  -7.3709  -7.3709
     6.1055   6.1055   6.1056   6.1056   6.7224   6.7224   6.7224   6.7224
     8.3924   8.3924   8.3925   8.3925   8.6251   8.6251   8.6251   8.6251
    12.0298  12.0298  12.0298  12.0298  13.1035  13.1035  13.1036  13.1036
    14.2886  14.2886  14.2886  14.2887  14.6575  14.6576

          k = 0.2500-0.5000-0.5000 (  4796 PWs)   bands (ev):

   -30.9999 -30.9999 -30.9999 -30.9999 -30.9999 -30.9999 -30.9997 -30.9997
   -11.9668 -11.9668 -11.9668 -11.9668 -11.9668 -11.9668 -11.9666 -11.9666
    -8.1134  -8.1134  -8.1134  -8.1134  -8.1133  -8.1133  -8.1133  -8.1133
    -7.4102  -7.4102  -7.4102  -7.4102  -7.4100  -7.4100  -7.4100  -7.4100
     6.1292   6.1292   6.1292   6.1292   6.1292   6.1292   6.1292   6.1292
     8.9037   8.9037   8.9037   8.9037   8.9037   8.9037   8.9037   8.9037
    12.9378  12.9378  12.9378  12.9378  12.9378  12.9378  12.9379  12.9379
    14.0551  14.0552  14.0552  14.0552  14.0552  14.0553

          k =-0.5000-0.5000-0.5000 (  4776 PWs)   bands (ev):

   -30.9997 -30.9997 -30.9997 -30.9997 -30.9997 -30.9997 -30.9995 -30.9995
   -11.9824 -11.9824 -11.9824 -11.9824 -11.9824 -11.9824 -11.9822 -11.9822
    -8.1614  -8.1614  -8.1614  -8.1614  -8.1613  -8.1613  -8.1613  -8.1613
    -7.3218  -7.3218  -7.3218  -7.3218  -7.3217  -7.3217  -7.3217  -7.3217
     5.7072   5.7072   5.7072   5.7072   5.7072   5.7072   5.7072   5.7072
     9.5479   9.5479   9.5479   9.5479   9.5479   9.5479   9.5479   9.5479
    13.5057  13.5057  13.5057  13.5058  13.5058  13.5058  13.5061  13.5068
    13.6964  13.6965  13.6965  13.6965  13.6965  13.6965

     the Fermi energy is    12.0826 ev

!    total energy              =   -2248.29964639 Ry
     Harris-Foulkes estimate   =   -2248.29964639 Ry
     estimated scf accuracy    <          5.1E-09 Ry

     total all-electron energy =    -90252.643023 Ry

     The total energy is the sum of the following terms:

     one-electron contribution =     -20.65532815 Ry
     hartree contribution      =      37.40480550 Ry
     xc contribution           =    -258.36051902 Ry
     ewald contribution        =    -258.58627504 Ry
     one-center paw contrib.   =   -1748.10050939 Ry
     smearing contrib. (-TS)   =      -0.00182029 Ry

     convergence has been achieved in   7 iterations

     Writing output data file 2347.save
 
     init_run     :      2.76s CPU      3.49s WALL (       1 calls)
     electrons    :     20.62s CPU     37.21s WALL (       1 calls)

     Called by init_run:
     wfcinit      :      2.07s CPU      2.24s WALL (       1 calls)
     potinit      :      0.45s CPU      0.60s WALL (       1 calls)

     Called by electrons:
     c_bands      :     14.57s CPU     29.57s WALL (       7 calls)
     sum_band     :      2.51s CPU      2.68s WALL (       7 calls)
     v_of_rho     :      0.06s CPU      0.07s WALL (       8 calls)
     newd         :      0.71s CPU      0.79s WALL (       8 calls)
     PAW_pot      :      3.19s CPU      3.31s WALL (       8 calls)
     mix_rho      :      0.04s CPU      0.04s WALL (       7 calls)

     Called by c_bands:
     init_us_2    :      0.07s CPU      0.07s WALL (     150 calls)
     cegterg      :     13.05s CPU     14.13s WALL (      70 calls)

     Called by sum_band:
     sum_band:bec :      0.31s CPU      0.31s WALL (      70 calls)
     addusdens    :      0.25s CPU      0.34s WALL (       7 calls)

     Called by *egterg:
     h_psi        :     10.15s CPU     11.03s WALL (     250 calls)
     s_psi        :      0.87s CPU      0.87s WALL (     250 calls)
     g_psi        :      0.05s CPU      0.05s WALL (     170 calls)
     cdiaghg      :      1.55s CPU      1.65s WALL (     240 calls)

     Called by h_psi:
     h_psi:pot    :     10.07s CPU     10.95s WALL (     250 calls)
     h_psi:calbec :      0.75s CPU      0.87s WALL (     250 calls)
     vloc_psi     :      8.45s CPU      9.20s WALL (     250 calls)
     add_vuspsi   :      0.87s CPU      0.87s WALL (     250 calls)

     General routines
     calbec       :      0.98s CPU      1.11s WALL (     320 calls)
     fft          :      0.09s CPU      0.28s WALL (     148 calls)
     fftw         :      8.89s CPU      9.66s WALL (   59416 calls)
     davcio       :      0.00s CPU      0.01s WALL (      10 calls)
 
     Parallel routines
     fft_scatter  :      3.06s CPU      3.69s WALL (   59564 calls)
 
     PWSCF        :  0m24.36s CPU     1m19.91s WALL

 
   This run was terminated on:  11:38:17  30Nov2022            

=------------------------------------------------------------------------------=
   JOB DONE.
=------------------------------------------------------------------------------=
Removing 2347 from /home/shaharpit/tmp
