
     Program PWSCF v.6.1 (svn rev. 13369) starts on 30Nov2022 at 11:36:57 

     This program is part of the open-source Quantum ESPRESSO suite
     for quantum simulation of materials; please cite
         "P. Giannozzi et al., J. Phys.:Condens. Matter 21 395502 (2009);
          URL http://www.quantum-espresso.org", 
     in publications or presentations arising from this work. More details at
     http://www.quantum-espresso.org/quote

     Parallel version (MPI), running on     8 processors
     R & G space division:  proc/nbgrp/npool/nimage =       8
     Reading input from ./GdH2_1.05.in
Warning: card &IONS ignored
Warning: card 	ION_DYNAMICS='BFGS', ignored
Warning: card / ignored
Warning: card &CELL ignored
Warning: card / ignored

     Current dimensions of program PWSCF are:
     Max number of different atomic species (ntypx) = 10
     Max number of k-points (npk) =  40000
     Max angular momentum in pseudopotentials (lmaxx) =  3
               file Gd.rel-pbe-spdn-kjpaw_psl.1.0.0.UPF: wavefunction(s)  5P 5P renormalized
               file H.pbe-kjpaw_psl.0.1.UPF: wavefunction(s)  1S renormalized

     Subspace diagonalization in iterative solution of the eigenvalue problem:
     a serial algorithm will be used

     Found symmetry operation: I + (  0.0000 -0.5000 -0.5000)
     This is a supercell, fractional translations are disabled
 
     Parallelization info
     --------------------
     sticks:   dense  smooth     PW     G-vecs:    dense   smooth      PW
     Min         206     206     60                 6316     6316     976
     Max         207     207     61                 6319     6319     977
     Sum        1649    1649    481                50541    50541    7809
 


     bravais-lattice index     =            0
     lattice parameter (alat)  =      10.1854  a.u.
     unit-cell volume          =    1056.6684 (a.u.)^3
     number of atoms/cell      =           12
     number of atomic types    =            2
     number of electrons       =        52.00
     number of Kohn-Sham states=           62
     kinetic-energy cutoff     =      50.0000  Ry
     charge density cutoff     =     200.0000  Ry
     convergence threshold     =      1.0E-06
     mixing beta               =       0.7000
     number of iterations used =            8  plain     mixing
     Exchange-correlation      =  SLA  PW   PBX  PBC ( 1  4  3  4 0 0)
     Non magnetic calculation with spin-orbit


     celldm(1)=  10.185435  celldm(2)=   0.000000  celldm(3)=   0.000000
     celldm(4)=   0.000000  celldm(5)=   0.000000  celldm(6)=   0.000000

     crystal axes: (cart. coord. in units of alat)
               a(1) = (   1.000000   0.000000   0.000000 )  
               a(2) = (   0.000000   1.000000   0.000000 )  
               a(3) = (   0.000000   0.000000   1.000000 )  

     reciprocal axes: (cart. coord. in units 2 pi/alat)
               b(1) = (  1.000000  0.000000  0.000000 )  
               b(2) = (  0.000000  1.000000  0.000000 )  
               b(3) = (  0.000000  0.000000  1.000000 )  


     PseudoPot. # 1 for Gd read from file:
     /home/shaharpit/MeamGdH/dft/qe_potentials/Gd.rel-pbe-spdn-kjpaw_psl.1.0.0.UPF
     MD5 check sum: cf50ec46d1536b4a0251694df1946a53
     Pseudo is Projector augmented-wave + core cor, Zval = 11.0
     Generated using "atomic" code by A. Dal Corso  v.6.2.2
     Shape of augmentation charge: PSQ
     Using radial grid of 1263 points, 10 beta functions with: 
                l(1) =   0
                l(2) =   0
                l(3) =   1
                l(4) =   1
                l(5) =   1
                l(6) =   1
                l(7) =   2
                l(8) =   2
                l(9) =   2
               l(10) =   2
     Q(r) pseudized with 0 coefficients 


     PseudoPot. # 2 for  H read from file:
     /home/shaharpit/MeamGdH/dft/qe_potentials/H.pbe-kjpaw_psl.0.1.UPF
     MD5 check sum: fbb168fef676c0aaadbafd73f5b1efa8
     Pseudo is Projector augmented-wave, Zval =  1.0
     Generated using "atomic" code by A. Dal Corso  v.5.0.2 svn rev. 9415
     Shape of augmentation charge: PSQ
     Using radial grid of  929 points,  2 beta functions with: 
                l(1) =   0
                l(2) =   0
     Q(r) pseudized with 0 coefficients 


     atomic species   valence    mass     pseudopotential
        Gd            11.00   157.25000     Gd( 1.00)
        H              1.00     1.00794      H( 1.00)

     48 Sym. Ops., with inversion, found



   Cartesian axes

     site n.     atom                  positions (alat units)
         1           Gd  tau(   1) = (   0.0000000   0.0000000   0.0000000  )
         2           Gd  tau(   2) = (   0.0000000   0.5000000   0.5000000  )
         3           Gd  tau(   3) = (   0.5000000   0.0000000   0.5000000  )
         4           Gd  tau(   4) = (   0.5000000   0.5000000   0.0000000  )
         5           H   tau(   5) = (   0.2500000   0.2500000   0.2500000  )
         6           H   tau(   6) = (   0.2500000   0.7500000   0.7500000  )
         7           H   tau(   7) = (   0.7500000   0.2500000   0.7500000  )
         8           H   tau(   8) = (   0.7500000   0.7500000   0.2500000  )
         9           H   tau(   9) = (   0.2500000   0.7500000   0.2500000  )
        10           H   tau(  10) = (   0.2500000   0.2500000   0.7500000  )
        11           H   tau(  11) = (   0.7500000   0.7500000   0.7500000  )
        12           H   tau(  12) = (   0.7500000   0.2500000   0.2500000  )

     number of k points=    10  gaussian smearing, width (Ry)=  0.0100
                       cart. coord. in units 2pi/alat
        k(    1) = (   0.0000000   0.0000000   0.0000000), wk =   0.0156250
        k(    2) = (   0.0000000   0.0000000   0.2500000), wk =   0.0937500
        k(    3) = (   0.0000000   0.0000000  -0.5000000), wk =   0.0468750
        k(    4) = (   0.0000000   0.2500000   0.2500000), wk =   0.1875000
        k(    5) = (   0.0000000   0.2500000  -0.5000000), wk =   0.1875000
        k(    6) = (   0.0000000  -0.5000000  -0.5000000), wk =   0.0468750
        k(    7) = (   0.2500000   0.2500000   0.2500000), wk =   0.1250000
        k(    8) = (   0.2500000   0.2500000  -0.5000000), wk =   0.1875000
        k(    9) = (   0.2500000  -0.5000000  -0.5000000), wk =   0.0937500
        k(   10) = (  -0.5000000  -0.5000000  -0.5000000), wk =   0.0156250

     Dense  grid:    50541 G-vectors     FFT dimensions: (  45,  45,  45)

     Estimated max dynamical RAM per process >      42.96MB

     Estimated total allocated dynamical RAM >     343.65MB

     Check: negative/imaginary core charge=   -0.000002    0.000000

     Initial potential from superposition of free atoms

     starting charge   51.92374, renormalised to   52.00000
     Starting wfc are  120 randomized atomic wfcs
     Checking if some PAW data can be deallocated... 

     total cpu time spent up to now is        4.3 secs

     per-process dynamical memory:    79.9 Mb

     Self-consistent Calculation

     iteration #  1     ecut=    50.00 Ry     beta=0.70
     Davidson diagonalization with overlap
     ethr =  1.00E-02,  avg # of iterations =  2.0

     total cpu time spent up to now is        7.2 secs

     total energy              =   -2248.30576376 Ry
     Harris-Foulkes estimate   =   -2248.63139309 Ry
     estimated scf accuracy    <       0.56977498 Ry

     iteration #  2     ecut=    50.00 Ry     beta=0.70
     Davidson diagonalization with overlap
     ethr =  1.10E-03,  avg # of iterations =  2.8

     total cpu time spent up to now is       10.3 secs

     total energy              =   -2248.41097943 Ry
     Harris-Foulkes estimate   =   -2248.41708021 Ry
     estimated scf accuracy    <       0.01009412 Ry

     iteration #  3     ecut=    50.00 Ry     beta=0.70
     Davidson diagonalization with overlap
     ethr =  1.94E-05,  avg # of iterations =  2.6

     total cpu time spent up to now is       13.9 secs

     total energy              =   -2248.41426716 Ry
     Harris-Foulkes estimate   =   -2248.41422366 Ry
     estimated scf accuracy    <       0.00021183 Ry

     iteration #  4     ecut=    50.00 Ry     beta=0.70
     Davidson diagonalization with overlap
     ethr =  4.07E-07,  avg # of iterations =  4.0

     total cpu time spent up to now is       17.7 secs

     total energy              =   -2248.41434456 Ry
     Harris-Foulkes estimate   =   -2248.41435249 Ry
     estimated scf accuracy    <       0.00001769 Ry

     iteration #  5     ecut=    50.00 Ry     beta=0.70
     Davidson diagonalization with overlap
     ethr =  3.40E-08,  avg # of iterations =  3.0

     total cpu time spent up to now is       21.2 secs

     total energy              =   -2248.41434924 Ry
     Harris-Foulkes estimate   =   -2248.41435085 Ry
     estimated scf accuracy    <       0.00000669 Ry

     iteration #  6     ecut=    50.00 Ry     beta=0.70
     Davidson diagonalization with overlap
     ethr =  1.29E-08,  avg # of iterations =  2.9

     total cpu time spent up to now is       24.4 secs

     total energy              =   -2248.41435059 Ry
     Harris-Foulkes estimate   =   -2248.41435154 Ry
     estimated scf accuracy    <       0.00000195 Ry

     iteration #  7     ecut=    50.00 Ry     beta=0.70
     Davidson diagonalization with overlap
     ethr =  3.75E-09,  avg # of iterations =  2.8

     total cpu time spent up to now is       27.5 secs

     End of self-consistent calculation

          k = 0.0000 0.0000 0.0000 (  6355 PWs)   bands (ev):

   -35.2698 -35.2698 -35.2230 -35.2230 -35.2230 -35.2230 -35.2228 -35.2228
   -16.0496 -16.0496 -16.0496 -16.0496 -16.0494 -16.0494 -15.8615 -15.8615
   -11.9414 -11.9414 -11.9413 -11.9413 -11.9413 -11.9413 -11.6781 -11.6781
   -11.6780 -11.6780 -11.6780 -11.6780 -11.4821 -11.4821 -11.4821 -11.4821
     1.3650   1.3650   4.1087   4.1087   4.1087   4.1087   4.1087   4.1087
     5.4724   5.4724   5.4724   5.4724   5.4724   5.4724   7.2107   7.2107
     7.2107   7.2107   7.2109   7.2109   7.6180   7.6180  10.0643  10.0643
    10.0643  10.0643  10.2237  10.2237  12.5143  12.5143

          k = 0.0000 0.0000 0.2500 (  6319 PWs)   bands (ev):

   -35.2630 -35.2630 -35.2298 -35.2298 -35.2230 -35.2230 -35.2229 -35.2229
   -16.0489 -16.0489 -16.0488 -16.0488 -16.0225 -16.0225 -15.8896 -15.8896
   -11.9174 -11.9174 -11.9173 -11.9173 -11.8806 -11.8806 -11.7090 -11.7090
   -11.7089 -11.7089 -11.6498 -11.6498 -11.5567 -11.5567 -11.5113 -11.5113
     1.7906   1.7906   4.2891   4.2891   4.2891   4.2891   4.3931   4.3931
     4.4496   4.4496   5.2605   5.2605   5.2605   5.2605   6.5418   6.5418
     7.6144   7.6144   7.6146   7.6146   8.1760   8.1760  10.3247  10.3247
    10.4524  10.4524  11.6670  11.6670  11.7039  11.7039

          k = 0.0000 0.0000-0.5000 (  6382 PWs)   bands (ev):

   -35.2465 -35.2465 -35.2463 -35.2463 -35.2230 -35.2230 -35.2228 -35.2228
   -16.0483 -16.0483 -16.0482 -16.0482 -15.9566 -15.9566 -15.9565 -15.9565
   -11.8829 -11.8829 -11.8828 -11.8828 -11.7503 -11.7503 -11.7502 -11.7502
   -11.7256 -11.7256 -11.7255 -11.7255 -11.5811 -11.5811 -11.5810 -11.5810
     2.9385   2.9385   2.9385   2.9385   4.6564   4.6564   4.6564   4.6564
     4.8627   4.8627   4.8627   4.8627   5.2315   5.2315   5.2315   5.2315
     8.2291   8.2291   8.2293   8.2293   9.8617   9.8617   9.8618   9.8619
    10.8767  10.8768  10.8769  10.8769  11.1553  11.1559

          k = 0.0000 0.2500 0.2500 (  6298 PWs)   bands (ev):

   -35.2571 -35.2571 -35.2289 -35.2289 -35.2287 -35.2287 -35.2239 -35.2239
   -16.0450 -16.0450 -16.0265 -16.0265 -16.0264 -16.0264 -15.9138 -15.9138
   -11.9039 -11.9039 -11.8770 -11.8770 -11.8769 -11.8769 -11.7121 -11.7121
   -11.6715 -11.6715 -11.6714 -11.6714 -11.6336 -11.6336 -11.5203 -11.5203
     2.1608   2.1608   4.3207   4.3207   4.4224   4.4224   4.4224   4.4224
     4.5626   4.5626   4.5626   4.5626   5.1433   5.1433   6.0428   6.0428
     7.9814   7.9814   8.3507   8.3507   8.3509   8.3509  10.3140  10.3140
    10.5999  10.5999  11.7439  11.7440  11.8915  11.8916

          k = 0.0000 0.2500-0.5000 (  6304 PWs)   bands (ev):

   -35.2430 -35.2430 -35.2429 -35.2429 -35.2264 -35.2264 -35.2263 -35.2263
   -16.0358 -16.0358 -16.0357 -16.0357 -15.9710 -15.9710 -15.9709 -15.9709
   -11.8806 -11.8806 -11.8806 -11.8806 -11.7676 -11.7676 -11.7675 -11.7675
   -11.7055 -11.7055 -11.7054 -11.7054 -11.5877 -11.5877 -11.5877 -11.5877
     3.1605   3.1605   3.1605   3.1605   4.3965   4.3965   4.3966   4.3966
     4.8547   4.8547   4.8547   4.8547   5.1703   5.1703   5.1703   5.1703
     8.5615   8.5615   8.5617   8.5617   9.7021   9.7021   9.7022   9.7022
    11.2317  11.2317  11.2321  11.2333  11.2665  11.2666

          k = 0.0000-0.5000-0.5000 (  6256 PWs)   bands (ev):

   -35.2347 -35.2347 -35.2347 -35.2347 -35.2347 -35.2347 -35.2344 -35.2344
   -16.0044 -16.0044 -16.0044 -16.0044 -16.0044 -16.0044 -16.0042 -16.0042
   -11.8404 -11.8404 -11.8404 -11.8404 -11.8403 -11.8403 -11.8403 -11.8403
   -11.6311 -11.6311 -11.6311 -11.6311 -11.6310 -11.6310 -11.6310 -11.6310
     3.7333   3.7333   3.7333   3.7333   3.7333   3.7333   3.7333   3.7333
     5.0117   5.0117   5.0117   5.0117   5.0117   5.0117   5.0118   5.0118
     9.2794   9.2794   9.2794   9.2794   9.2794   9.2794   9.2797   9.2797
    11.2476  11.2476  11.2477  11.2477  11.2478  11.2479

          k = 0.2500 0.2500 0.2500 (  6331 PWs)   bands (ev):

   -35.2522 -35.2522 -35.2288 -35.2288 -35.2288 -35.2288 -35.2286 -35.2286
   -16.0272 -16.0272 -16.0272 -16.0272 -16.0270 -16.0270 -15.9343 -15.9343
   -11.8855 -11.8855 -11.8855 -11.8855 -11.8854 -11.8854 -11.7033 -11.7033
   -11.6637 -11.6637 -11.6637 -11.6637 -11.6637 -11.6637 -11.5192 -11.5192
     2.4494   2.4494   4.0995   4.0995   4.0995   4.0995   4.0995   4.0995
     4.9546   4.9546   4.9546   4.9546   4.9546   4.9546   5.7764   5.7764
     8.5842   8.5842   8.5842   8.5842   8.5844   8.5844  10.3593  10.3593
    10.5583  10.5583  11.3809  11.3809  11.3809  11.3810

          k = 0.2500 0.2500-0.5000 (  6316 PWs)   bands (ev):

   -35.2406 -35.2406 -35.2404 -35.2404 -35.2288 -35.2288 -35.2287 -35.2287
   -16.0278 -16.0278 -16.0277 -16.0277 -15.9821 -15.9821 -15.9820 -15.9820
   -11.8933 -11.8933 -11.8933 -11.8933 -11.8139 -11.8139 -11.8139 -11.8139
   -11.6566 -11.6566 -11.6565 -11.6565 -11.5727 -11.5727 -11.5727 -11.5727
     3.2214   3.2214   3.2214   3.2214   3.9588   3.9588   3.9588   3.9588
     5.1631   5.1631   5.1631   5.1631   5.2577   5.2577   5.2577   5.2577
     8.9163   8.9163   8.9164   8.9164   9.8234   9.8234   9.8236   9.8236
    10.6613  10.6613  10.6613  10.6615  10.9229  10.9229

          k = 0.2500-0.5000-0.5000 (  6296 PWs)   bands (ev):

   -35.2347 -35.2347 -35.2347 -35.2347 -35.2347 -35.2347 -35.2344 -35.2344
   -16.0065 -16.0065 -16.0065 -16.0065 -16.0065 -16.0065 -16.0063 -16.0063
   -11.8768 -11.8768 -11.8768 -11.8768 -11.8767 -11.8767 -11.8767 -11.8767
   -11.5892 -11.5892 -11.5892 -11.5892 -11.5891 -11.5891 -11.5891 -11.5891
     3.4735   3.4735   3.4735   3.4735   3.4735   3.4735   3.4736   3.4736
     5.3386   5.3386   5.3386   5.3386   5.3386   5.3386   5.3386   5.3386
     9.6479   9.6480   9.6480   9.6480   9.6480   9.6480   9.6482   9.6482
    10.5277  10.5277  10.5277  10.5277  10.5278  10.5278

          k =-0.5000-0.5000-0.5000 (  6272 PWs)   bands (ev):

   -35.2346 -35.2346 -35.2346 -35.2346 -35.2346 -35.2346 -35.2344 -35.2344
   -16.0085 -16.0085 -16.0085 -16.0085 -16.0085 -16.0085 -16.0083 -16.0083
   -11.9046 -11.9046 -11.9046 -11.9046 -11.9045 -11.9045 -11.9045 -11.9045
   -11.5558 -11.5558 -11.5558 -11.5558 -11.5557 -11.5557 -11.5557 -11.5557
     3.2827   3.2827   3.2827   3.2827   3.2827   3.2827   3.2827   3.2827
     5.5989   5.5989   5.5989   5.5989   5.5989   5.5989   5.5990   5.5990
    10.0951  10.0951  10.0951  10.0951  10.0951  10.0951  10.0956  10.0960
    10.2812  10.2813  10.2813  10.2813  10.2813  10.2813

     the Fermi energy is     8.9691 ev

!    total energy              =   -2248.41435096 Ry
     Harris-Foulkes estimate   =   -2248.41435097 Ry
     estimated scf accuracy    <          2.3E-09 Ry

     total all-electron energy =    -90252.757728 Ry

     The total energy is the sum of the following terms:

     one-electron contribution =     -52.71920927 Ry
     hartree contribution      =      45.57977393 Ry
     xc contribution           =    -257.03928078 Ry
     ewald contribution        =    -236.18144555 Ry
     one-center paw contrib.   =   -1748.05236151 Ry
     smearing contrib. (-TS)   =      -0.00182778 Ry

     convergence has been achieved in   7 iterations

     Writing output data file 2351.save
 
     init_run     :      2.06s CPU      2.74s WALL (       1 calls)
     electrons    :     22.64s CPU     24.43s WALL (       1 calls)

     Called by init_run:
     wfcinit      :      1.36s CPU      1.52s WALL (       1 calls)
     potinit      :      0.43s CPU      0.53s WALL (       1 calls)

     Called by electrons:
     c_bands      :     16.43s CPU     16.78s WALL (       7 calls)
     sum_band     :      2.58s CPU      2.73s WALL (       7 calls)
     v_of_rho     :      0.05s CPU      0.06s WALL (       8 calls)
     newd         :      0.78s CPU      0.91s WALL (       8 calls)
     PAW_pot      :      3.21s CPU      3.28s WALL (       8 calls)
     mix_rho      :      0.06s CPU      0.06s WALL (       7 calls)

     Called by c_bands:
     init_us_2    :      0.09s CPU      0.10s WALL (     150 calls)
     cegterg      :     14.43s CPU     14.76s WALL (      70 calls)

     Called by sum_band:
     sum_band:bec :      0.31s CPU      0.31s WALL (      70 calls)
     addusdens    :      0.31s CPU      0.41s WALL (       7 calls)

     Called by *egterg:
     h_psi        :      9.79s CPU     10.06s WALL (     281 calls)
     s_psi        :      1.08s CPU      1.08s WALL (     281 calls)
     g_psi        :      0.07s CPU      0.07s WALL (     201 calls)
     cdiaghg      :      1.77s CPU      1.86s WALL (     271 calls)

     Called by h_psi:
     h_psi:pot    :      9.67s CPU      9.93s WALL (     281 calls)
     h_psi:calbec :      0.83s CPU      0.86s WALL (     281 calls)
     vloc_psi     :      7.75s CPU      7.98s WALL (     281 calls)
     add_vuspsi   :      1.08s CPU      1.09s WALL (     281 calls)

     General routines
     calbec       :      1.10s CPU      1.14s WALL (     351 calls)
     fft          :      0.04s CPU      0.24s WALL (     148 calls)
     fftw         :      8.07s CPU      8.30s WALL (   58828 calls)
     davcio       :      0.00s CPU      0.01s WALL (      10 calls)
 
     Parallel routines
     fft_scatter  :      2.15s CPU      2.24s WALL (   58976 calls)
 
     PWSCF        :  0m25.66s CPU     1m38.36s WALL

 
   This run was terminated on:  11:38:36  30Nov2022            

=------------------------------------------------------------------------------=
   JOB DONE.
=------------------------------------------------------------------------------=
Removing 2351 from /home/shaharpit/tmp
