
     Program PWSCF v.6.1 (svn rev. 13369) starts on 30Nov2022 at 11:36:57 

     This program is part of the open-source Quantum ESPRESSO suite
     for quantum simulation of materials; please cite
         "P. Giannozzi et al., J. Phys.:Condens. Matter 21 395502 (2009);
          URL http://www.quantum-espresso.org", 
     in publications or presentations arising from this work. More details at
     http://www.quantum-espresso.org/quote

     Parallel version (MPI), running on     8 processors
     R & G space division:  proc/nbgrp/npool/nimage =       8
     Reading input from ./GdH2_1.2.in
Warning: card &IONS ignored
Warning: card 	ION_DYNAMICS='BFGS', ignored
Warning: card / ignored
Warning: card &CELL ignored
Warning: card / ignored

     Current dimensions of program PWSCF are:
     Max number of different atomic species (ntypx) = 10
     Max number of k-points (npk) =  40000
     Max angular momentum in pseudopotentials (lmaxx) =  3
               file Gd.rel-pbe-spdn-kjpaw_psl.1.0.0.UPF: wavefunction(s)  5P 5P renormalized
               file H.pbe-kjpaw_psl.0.1.UPF: wavefunction(s)  1S renormalized

     Subspace diagonalization in iterative solution of the eigenvalue problem:
     a serial algorithm will be used

     Found symmetry operation: I + (  0.0000 -0.5000 -0.5000)
     This is a supercell, fractional translations are disabled
 
     Parallelization info
     --------------------
     sticks:   dense  smooth     PW     G-vecs:    dense   smooth      PW
     Min         223     223     64                 7215     7215    1114
     Max         224     224     65                 7220     7220    1117
     Sum        1789    1789    517                57747    57747    8925
 


     bravais-lattice index     =            0
     lattice parameter (alat)  =      10.6492  a.u.
     unit-cell volume          =    1207.6685 (a.u.)^3
     number of atoms/cell      =           12
     number of atomic types    =            2
     number of electrons       =        52.00
     number of Kohn-Sham states=           62
     kinetic-energy cutoff     =      50.0000  Ry
     charge density cutoff     =     200.0000  Ry
     convergence threshold     =      1.0E-06
     mixing beta               =       0.7000
     number of iterations used =            8  plain     mixing
     Exchange-correlation      =  SLA  PW   PBX  PBC ( 1  4  3  4 0 0)
     Non magnetic calculation with spin-orbit


     celldm(1)=  10.649174  celldm(2)=   0.000000  celldm(3)=   0.000000
     celldm(4)=   0.000000  celldm(5)=   0.000000  celldm(6)=   0.000000

     crystal axes: (cart. coord. in units of alat)
               a(1) = (   1.000000   0.000000   0.000000 )  
               a(2) = (   0.000000   1.000000   0.000000 )  
               a(3) = (   0.000000   0.000000   1.000000 )  

     reciprocal axes: (cart. coord. in units 2 pi/alat)
               b(1) = (  1.000000  0.000000  0.000000 )  
               b(2) = (  0.000000  1.000000  0.000000 )  
               b(3) = (  0.000000  0.000000  1.000000 )  


     PseudoPot. # 1 for Gd read from file:
     /home/shaharpit/MeamGdH/dft/qe_potentials/Gd.rel-pbe-spdn-kjpaw_psl.1.0.0.UPF
     MD5 check sum: cf50ec46d1536b4a0251694df1946a53
     Pseudo is Projector augmented-wave + core cor, Zval = 11.0
     Generated using "atomic" code by A. Dal Corso  v.6.2.2
     Shape of augmentation charge: PSQ
     Using radial grid of 1263 points, 10 beta functions with: 
                l(1) =   0
                l(2) =   0
                l(3) =   1
                l(4) =   1
                l(5) =   1
                l(6) =   1
                l(7) =   2
                l(8) =   2
                l(9) =   2
               l(10) =   2
     Q(r) pseudized with 0 coefficients 


     PseudoPot. # 2 for  H read from file:
     /home/shaharpit/MeamGdH/dft/qe_potentials/H.pbe-kjpaw_psl.0.1.UPF
     MD5 check sum: fbb168fef676c0aaadbafd73f5b1efa8
     Pseudo is Projector augmented-wave, Zval =  1.0
     Generated using "atomic" code by A. Dal Corso  v.5.0.2 svn rev. 9415
     Shape of augmentation charge: PSQ
     Using radial grid of  929 points,  2 beta functions with: 
                l(1) =   0
                l(2) =   0
     Q(r) pseudized with 0 coefficients 


     atomic species   valence    mass     pseudopotential
        Gd            11.00   157.25000     Gd( 1.00)
        H              1.00     1.00794      H( 1.00)

     48 Sym. Ops., with inversion, found



   Cartesian axes

     site n.     atom                  positions (alat units)
         1           Gd  tau(   1) = (   0.0000000   0.0000000   0.0000000  )
         2           Gd  tau(   2) = (   0.0000000   0.5000000   0.5000000  )
         3           Gd  tau(   3) = (   0.5000000   0.0000000   0.5000000  )
         4           Gd  tau(   4) = (   0.5000000   0.5000000   0.0000000  )
         5           H   tau(   5) = (   0.2500000   0.2500000   0.2500000  )
         6           H   tau(   6) = (   0.2500000   0.7500000   0.7500000  )
         7           H   tau(   7) = (   0.7500000   0.2500000   0.7500000  )
         8           H   tau(   8) = (   0.7500000   0.7500000   0.2500000  )
         9           H   tau(   9) = (   0.2500000   0.7500000   0.2500000  )
        10           H   tau(  10) = (   0.2500000   0.2500000   0.7500000  )
        11           H   tau(  11) = (   0.7500000   0.7500000   0.7500000  )
        12           H   tau(  12) = (   0.7500000   0.2500000   0.2500000  )

     number of k points=    10  gaussian smearing, width (Ry)=  0.0100
                       cart. coord. in units 2pi/alat
        k(    1) = (   0.0000000   0.0000000   0.0000000), wk =   0.0156250
        k(    2) = (   0.0000000   0.0000000   0.2500000), wk =   0.0937500
        k(    3) = (   0.0000000   0.0000000  -0.5000000), wk =   0.0468750
        k(    4) = (   0.0000000   0.2500000   0.2500000), wk =   0.1875000
        k(    5) = (   0.0000000   0.2500000  -0.5000000), wk =   0.1875000
        k(    6) = (   0.0000000  -0.5000000  -0.5000000), wk =   0.0468750
        k(    7) = (   0.2500000   0.2500000   0.2500000), wk =   0.1250000
        k(    8) = (   0.2500000   0.2500000  -0.5000000), wk =   0.1875000
        k(    9) = (   0.2500000  -0.5000000  -0.5000000), wk =   0.0937500
        k(   10) = (  -0.5000000  -0.5000000  -0.5000000), wk =   0.0156250

     Dense  grid:    57747 G-vectors     FFT dimensions: (  48,  48,  48)

     Estimated max dynamical RAM per process >      48.78MB

     Estimated total allocated dynamical RAM >     390.28MB

     Check: negative/imaginary core charge=   -0.000003    0.000000

     Initial potential from superposition of free atoms

     starting charge   51.92374, renormalised to   52.00000
     Starting wfc are  120 randomized atomic wfcs
     Checking if some PAW data can be deallocated... 

     total cpu time spent up to now is        4.3 secs

     per-process dynamical memory:    84.9 Mb

     Self-consistent Calculation

     iteration #  1     ecut=    50.00 Ry     beta=0.70
     Davidson diagonalization with overlap
     ethr =  1.00E-02,  avg # of iterations =  2.0

     total cpu time spent up to now is        7.2 secs

     total energy              =   -2248.21074908 Ry
     Harris-Foulkes estimate   =   -2248.54157550 Ry
     estimated scf accuracy    <       0.56478444 Ry

     iteration #  2     ecut=    50.00 Ry     beta=0.70
     Davidson diagonalization with overlap
     ethr =  1.09E-03,  avg # of iterations =  2.8

     total cpu time spent up to now is       10.4 secs

     total energy              =   -2248.32432134 Ry
     Harris-Foulkes estimate   =   -2248.33390322 Ry
     estimated scf accuracy    <       0.01593958 Ry

     iteration #  3     ecut=    50.00 Ry     beta=0.70
     Davidson diagonalization with overlap
     ethr =  3.07E-05,  avg # of iterations =  2.7

     total cpu time spent up to now is       13.9 secs

     total energy              =   -2248.32893251 Ry
     Harris-Foulkes estimate   =   -2248.32886967 Ry
     estimated scf accuracy    <       0.00025749 Ry

     iteration #  4     ecut=    50.00 Ry     beta=0.70
     Davidson diagonalization with overlap
     ethr =  4.95E-07,  avg # of iterations =  3.5

     total cpu time spent up to now is       17.8 secs

     total energy              =   -2248.32904583 Ry
     Harris-Foulkes estimate   =   -2248.32906263 Ry
     estimated scf accuracy    <       0.00003245 Ry

     iteration #  5     ecut=    50.00 Ry     beta=0.70
     Davidson diagonalization with overlap
     ethr =  6.24E-08,  avg # of iterations =  3.1

     total cpu time spent up to now is       21.1 secs

     total energy              =   -2248.32905276 Ry
     Harris-Foulkes estimate   =   -2248.32905519 Ry
     estimated scf accuracy    <       0.00000948 Ry

     iteration #  6     ecut=    50.00 Ry     beta=0.70
     Davidson diagonalization with overlap
     ethr =  1.82E-08,  avg # of iterations =  3.4

     total cpu time spent up to now is       24.6 secs

     total energy              =   -2248.32905481 Ry
     Harris-Foulkes estimate   =   -2248.32905639 Ry
     estimated scf accuracy    <       0.00000316 Ry

     iteration #  7     ecut=    50.00 Ry     beta=0.70
     Davidson diagonalization with overlap
     ethr =  6.08E-09,  avg # of iterations =  2.8

     total cpu time spent up to now is       27.9 secs

     End of self-consistent calculation

          k = 0.0000 0.0000 0.0000 (  7123 PWs)   bands (ev):

   -37.0862 -37.0862 -37.0623 -37.0623 -37.0623 -37.0623 -37.0622 -37.0622
   -17.8106 -17.8106 -17.8106 -17.8106 -17.8105 -17.8105 -17.7003 -17.7003
   -13.6050 -13.6050 -13.6049 -13.6049 -13.6049 -13.6049 -13.4454 -13.4454
   -13.4454 -13.4454 -13.4454 -13.4454 -13.3228 -13.3228 -13.3228 -13.3228
     0.4500   0.4500   3.1629   3.1629   3.1629   3.1629   3.1629   3.1629
     3.9988   3.9988   3.9989   3.9989   3.9989   3.9989   6.1113   6.1113
     6.1113   6.1113   6.1114   6.1114   6.2547   6.2547   8.6102   8.6102
     8.6102   8.6102   8.7695   8.7695  10.6876  10.6876

          k = 0.0000 0.0000 0.2500 (  7196 PWs)   bands (ev):

   -37.0827 -37.0827 -37.0658 -37.0658 -37.0623 -37.0623 -37.0622 -37.0622
   -17.8105 -17.8105 -17.8104 -17.8104 -17.7947 -17.7947 -17.7167 -17.7167
   -13.5896 -13.5896 -13.5895 -13.5895 -13.5665 -13.5665 -13.4635 -13.4635
   -13.4635 -13.4635 -13.4276 -13.4276 -13.3672 -13.3672 -13.3409 -13.3409
     0.8093   0.8093   3.1232   3.1232   3.2717   3.2717   3.2717   3.2717
     3.4182   3.4182   3.8718   3.8718   3.8718   3.8718   5.3306   5.3306
     6.4659   6.4659   6.4659   6.4659   6.9634   6.9634   8.8275   8.8275
     8.9505   8.9505   9.9928   9.9928  10.0456  10.0456

          k = 0.0000 0.0000-0.5000 (  7224 PWs)   bands (ev):

   -37.0743 -37.0743 -37.0742 -37.0742 -37.0623 -37.0623 -37.0622 -37.0622
   -17.8103 -17.8103 -17.8102 -17.8102 -17.7560 -17.7560 -17.7559 -17.7559
   -13.5676 -13.5676 -13.5676 -13.5676 -13.4882 -13.4882 -13.4881 -13.4881
   -13.4698 -13.4698 -13.4697 -13.4697 -13.3845 -13.3845 -13.3844 -13.3844
     1.7954   1.7954   1.7954   1.7954   3.4831   3.4831   3.4831   3.4831
     3.6427   3.6427   3.6427   3.6427   4.1687   4.1687   4.1687   4.1687
     7.0158   7.0158   7.0158   7.0158   8.4772   8.4772   8.4772   8.4773
     9.2287   9.2288   9.2288   9.2288   9.5366   9.5372

          k = 0.0000 0.2500 0.2500 (  7211 PWs)   bands (ev):

   -37.0797 -37.0797 -37.0653 -37.0653 -37.0652 -37.0652 -37.0628 -37.0628
   -17.8082 -17.8082 -17.7971 -17.7971 -17.7970 -17.7970 -17.7308 -17.7308
   -13.5806 -13.5806 -13.5642 -13.5642 -13.5641 -13.5641 -13.4653 -13.4653
   -13.4402 -13.4402 -13.4402 -13.4402 -13.4139 -13.4139 -13.3466 -13.3466
     1.1294   1.1294   3.1571   3.1571   3.1572   3.1572   3.2534   3.2534
     3.4927   3.4927   3.4927   3.4927   3.8115   3.8115   4.8724   4.8724
     6.7862   6.7862   7.1320   7.1320   7.1321   7.1321   8.8228   8.8228
     9.0870   9.0870  10.0690  10.0692  10.1554  10.1555

          k = 0.0000 0.2500-0.5000 (  7198 PWs)   bands (ev):

   -37.0725 -37.0725 -37.0724 -37.0724 -37.0641 -37.0641 -37.0640 -37.0640
   -17.8027 -17.8027 -17.8027 -17.8027 -17.7643 -17.7643 -17.7642 -17.7642
   -13.5660 -13.5660 -13.5659 -13.5659 -13.4960 -13.4960 -13.4960 -13.4960
   -13.4608 -13.4608 -13.4607 -13.4607 -13.3883 -13.3883 -13.3883 -13.3883
     2.0056   2.0056   2.0056   2.0056   3.2131   3.2131   3.2131   3.2131
     3.6592   3.6592   3.6592   3.6592   4.0749   4.0749   4.0749   4.0749
     7.3126   7.3126   7.3126   7.3126   8.3307   8.3307   8.3308   8.3308
     9.5822   9.5823   9.5827   9.5830   9.6419   9.6421

          k = 0.0000-0.5000-0.5000 (  7248 PWs)   bands (ev):

   -37.0683 -37.0683 -37.0683 -37.0683 -37.0683 -37.0683 -37.0681 -37.0681
   -17.7839 -17.7839 -17.7839 -17.7839 -17.7839 -17.7839 -17.7837 -17.7837
   -13.5411 -13.5411 -13.5411 -13.5411 -13.5410 -13.5410 -13.5410 -13.5410
   -13.4151 -13.4151 -13.4151 -13.4151 -13.4150 -13.4150 -13.4150 -13.4150
     2.5579   2.5579   2.5579   2.5579   2.5579   2.5579   2.5579   2.5579
     3.8576   3.8576   3.8576   3.8576   3.8576   3.8576   3.8576   3.8576
     7.9456   7.9456   7.9456   7.9456   7.9456   7.9456   7.9456   7.9456
     9.6474   9.6475   9.6475   9.6476   9.6476   9.6479

          k = 0.2500 0.2500 0.2500 (  7199 PWs)   bands (ev):

   -37.0772 -37.0772 -37.0653 -37.0653 -37.0653 -37.0653 -37.0652 -37.0652
   -17.7974 -17.7974 -17.7974 -17.7974 -17.7973 -17.7973 -17.7426 -17.7426
   -13.5696 -13.5696 -13.5695 -13.5695 -13.5695 -13.5695 -13.4567 -13.4567
   -13.4353 -13.4353 -13.4352 -13.4352 -13.4352 -13.4352 -13.3463 -13.3463
     1.3951   1.3951   2.9864   2.9864   2.9864   2.9864   2.9864   2.9864
     3.7054   3.7054   3.7054   3.7054   3.7054   3.7054   4.5971   4.5971
     7.3402   7.3402   7.3402   7.3402   7.3402   7.3402   8.8620   8.8620
     9.0617   9.0617   9.7450   9.7450   9.7450   9.7451

          k = 0.2500 0.2500-0.5000 (  7248 PWs)   bands (ev):

   -37.0713 -37.0713 -37.0712 -37.0712 -37.0653 -37.0653 -37.0652 -37.0652
   -17.7977 -17.7977 -17.7976 -17.7976 -17.7705 -17.7705 -17.7704 -17.7704
   -13.5746 -13.5746 -13.5745 -13.5745 -13.5253 -13.5253 -13.5252 -13.5252
   -13.4307 -13.4307 -13.4306 -13.4306 -13.3793 -13.3793 -13.3793 -13.3793
     2.1145   2.1145   2.1145   2.1145   2.8850   2.8850   2.8850   2.8850
     3.8484   3.8484   3.8485   3.8485   4.0673   4.0673   4.0673   4.0673
     7.6331   7.6331   7.6331   7.6331   8.4355   8.4355   8.4355   8.4355
     9.1357   9.1357   9.1358   9.1363   9.3523   9.3523

          k = 0.2500-0.5000-0.5000 (  7220 PWs)   bands (ev):

   -37.0683 -37.0683 -37.0683 -37.0683 -37.0683 -37.0683 -37.0681 -37.0681
   -17.7846 -17.7846 -17.7846 -17.7846 -17.7846 -17.7846 -17.7845 -17.7845
   -13.5647 -13.5647 -13.5647 -13.5647 -13.5646 -13.5646 -13.5646 -13.5646
   -13.3896 -13.3896 -13.3896 -13.3896 -13.3895 -13.3895 -13.3895 -13.3895
     2.4289   2.4289   2.4289   2.4289   2.4289   2.4289   2.4289   2.4289
     4.0124   4.0124   4.0124   4.0124   4.0124   4.0124   4.0124   4.0124
     8.2739   8.2739   8.2739   8.2739   8.2739   8.2739   8.2740   8.2740
     9.0336   9.0337   9.0337   9.0337   9.0337   9.0337

          k =-0.5000-0.5000-0.5000 (  7208 PWs)   bands (ev):

   -37.0683 -37.0683 -37.0683 -37.0683 -37.0683 -37.0683 -37.0681 -37.0681
   -17.7854 -17.7854 -17.7854 -17.7854 -17.7854 -17.7854 -17.7852 -17.7852
   -13.5828 -13.5828 -13.5828 -13.5828 -13.5828 -13.5828 -13.5828 -13.5828
   -13.3696 -13.3696 -13.3696 -13.3696 -13.3695 -13.3695 -13.3695 -13.3695
     2.3209   2.3209   2.3209   2.3209   2.3209   2.3209   2.3209   2.3209
     4.1477   4.1477   4.1477   4.1477   4.1477   4.1477   4.1477   4.1477
     8.6470   8.6470   8.6470   8.6470   8.6470   8.6470   8.6472   8.6474
     8.8336   8.8336   8.8336   8.8336   8.8336   8.8336

     the Fermi energy is     7.6855 ev

!    total energy              =   -2248.32905544 Ry
     Harris-Foulkes estimate   =   -2248.32905545 Ry
     estimated scf accuracy    <          7.4E-09 Ry

     total all-electron energy =    -90252.672432 Ry

     The total energy is the sum of the following terms:

     one-electron contribution =     -67.61017595 Ry
     hartree contribution      =      49.71764186 Ry
     xc contribution           =    -256.50202552 Ry
     ewald contribution        =    -225.89646929 Ry
     one-center paw contrib.   =   -1748.03617011 Ry
     smearing contrib. (-TS)   =      -0.00185644 Ry

     convergence has been achieved in   7 iterations

     Writing output data file 2353.save
 
     init_run     :      2.09s CPU      2.73s WALL (       1 calls)
     electrons    :     22.93s CPU     24.58s WALL (       1 calls)

     Called by init_run:
     wfcinit      :      1.34s CPU      1.51s WALL (       1 calls)
     potinit      :      0.43s CPU      0.50s WALL (       1 calls)

     Called by electrons:
     c_bands      :     16.75s CPU     17.10s WALL (       7 calls)
     sum_band     :      2.53s CPU      2.71s WALL (       7 calls)
     v_of_rho     :      0.05s CPU      0.05s WALL (       8 calls)
     newd         :      0.81s CPU      0.96s WALL (       8 calls)
     PAW_pot      :      3.21s CPU      3.27s WALL (       8 calls)
     mix_rho      :      0.04s CPU      0.05s WALL (       7 calls)

     Called by c_bands:
     init_us_2    :      0.10s CPU      0.10s WALL (     150 calls)
     cegterg      :     14.48s CPU     14.81s WALL (      70 calls)

     Called by sum_band:
     sum_band:bec :      0.31s CPU      0.31s WALL (      70 calls)
     addusdens    :      0.36s CPU      0.48s WALL (       7 calls)

     Called by *egterg:
     h_psi        :      9.29s CPU      9.55s WALL (     283 calls)
     s_psi        :      1.19s CPU      1.19s WALL (     283 calls)
     g_psi        :      0.08s CPU      0.08s WALL (     203 calls)
     cdiaghg      :      1.78s CPU      1.87s WALL (     273 calls)

     Called by h_psi:
     h_psi:pot    :      9.14s CPU      9.40s WALL (     283 calls)
     h_psi:calbec :      0.95s CPU      0.97s WALL (     283 calls)
     vloc_psi     :      7.02s CPU      7.23s WALL (     283 calls)
     add_vuspsi   :      1.18s CPU      1.19s WALL (     283 calls)

     General routines
     calbec       :      1.26s CPU      1.30s WALL (     353 calls)
     fft          :      0.05s CPU      0.28s WALL (     148 calls)
     fftw         :      7.02s CPU      7.23s WALL (   59120 calls)
     davcio       :      0.00s CPU      0.01s WALL (      10 calls)
 
     Parallel routines
     fft_scatter  :      2.37s CPU      2.47s WALL (   59268 calls)
 
     PWSCF        :  0m44.54s CPU     1m 4.07s WALL

 
   This run was terminated on:  11:38: 1  30Nov2022            

=------------------------------------------------------------------------------=
   JOB DONE.
=------------------------------------------------------------------------------=
Removing 2353 from /home/shaharpit/tmp
