



     Program PWSCF v.6.1 (svn rev. 13369) starts on  3Jul2022 at 12:25:51 

     This program is part of the open-source Quantum ESPRESSO suite
     for quantum simulation of materials; please cite
         "P. Giannozzi et al., J. Phys.:Condens. Matter 21 395502 (2009);
          URL http://www.quantum-espresso.org", 
     in publications or presentations arising from this work. More details at
     http://www.quantum-espresso.org/quote

     Parallel version (MPI), running on     1 processors



     Program PWSCF v.6.1 (svn rev. 13369) starts on  3Jul2022 at 12:25:51 

     This program is part of the open-source Quantum ESPRESSO suite
     for quantum simulation of materials; please cite
         "P. Giannozzi et al., J. Phys.:Condens. Matter 21 395502 (2009);
          URL http://www.quantum-espresso.org", 
     in publications or presentations arising from this work. More details at
     http://www.quantum-espresso.org/quote

     Parallel version (MPI), running on     1 processors

     Program PWSCF v.6.1 (svn rev. 13369) starts on  3Jul2022 at 12:25:51 

     This program is part of the open-source Quantum ESPRESSO suite
     for quantum simulation of materials; please cite
         "P. Giannozzi et al., J. Phys.:Condens. Matter 21 395502 (2009);
          URL http://www.quantum-espresso.org", 
     in publications or presentations arising from this work. More details at
     http://www.quantum-espresso.org/quote

     Program PWSCF v.6.1 (svn rev. 13369) starts on  3Jul2022 at 12:25:51 

     This program is part of the open-source Quantum ESPRESSO suite
     for quantum simulation of materials; please cite
         "P. Giannozzi et al., J. Phys.:Condens. Matter 21 395502 (2009);
          URL http://www.quantum-espresso.org", 
     in publications or presentations arising from this work. More details at
     http://www.quantum-espresso.org/quote


     Program PWSCF v.6.1 (svn rev. 13369) starts on  3Jul2022 at 12:25:51 

     This program is part of the open-source Quantum ESPRESSO suite
     for quantum simulation of materials; please cite
         "P. Giannozzi et al., J. Phys.:Condens. Matter 21 395502 (2009);
          URL http://www.quantum-espresso.org", 
     in publications or presentations arising from this work. More details at
     http://www.quantum-espresso.org/quote

     Parallel version (MPI), running on     1 processors

     Program PWSCF v.6.1 (svn rev. 13369) starts on  3Jul2022 at 12:25:51 

     This program is part of the open-source Quantum ESPRESSO suite
     for quantum simulation of materials; please cite
         "P. Giannozzi et al., J. Phys.:Condens. Matter 21 395502 (2009);
          URL http://www.quantum-espresso.org", 
     in publications or presentations arising from this work. More details at
     http://www.quantum-espresso.org/quote

     Parallel version (MPI), running on     1 processors
     Program PWSCF v.6.1 (svn rev. 13369) starts on  3Jul2022 at 12:25:51 

     Parallel version (MPI), running on     1 processors
     Parallel version (MPI), running on     1 processors
     Program PWSCF v.6.1 (svn rev. 13369) starts on  3Jul2022 at 12:25:51 

     This program is part of the open-source Quantum ESPRESSO suite

     Program PWSCF v.6.1 (svn rev. 13369) starts on  3Jul2022 at 12:25:51 

     This program is part of the open-source Quantum ESPRESSO suite
     for quantum simulation of materials; please cite
         "P. Giannozzi et al., J. Phys.:Condens. Matter 21 395502 (2009);
          URL http://www.quantum-espresso.org", 
     in publications or presentations arising from this work. More details at
     http://www.quantum-espresso.org/quote

     Parallel version (MPI), running on     1 processors
     Program PWSCF v.6.1 (svn rev. 13369) starts on  3Jul2022 at 12:25:51 

     This program is part of the open-source Quantum ESPRESSO suite
     for quantum simulation of materials; please cite
         "P. Giannozzi et al., J. Phys.:Condens. Matter 21 395502 (2009);
          URL http://www.quantum-espresso.org", 
     in publications or presentations arising from this work. More details at
     http://www.quantum-espresso.org/quote

     Parallel version (MPI), running on     1 processors
     Program PWSCF v.6.1 (svn rev. 13369) starts on  3Jul2022 at 12:25:51 

     This program is part of the open-source Quantum ESPRESSO suite
     for quantum simulation of materials; please cite
         "P. Giannozzi et al., J. Phys.:Condens. Matter 21 395502 (2009);
          URL http://www.quantum-espresso.org", 
     in publications or presentations arising from this work. More details at
     http://www.quantum-espresso.org/quote

     Parallel version (MPI), running on     1 processors

     Program PWSCF v.6.1 (svn rev. 13369) starts on  3Jul2022 at 12:25:51 

     This program is part of the open-source Quantum ESPRESSO suite
     for quantum simulation of materials; please cite
         "P. Giannozzi et al., J. Phys.:Condens. Matter 21 395502 (2009);
          URL http://www.quantum-espresso.org", 
     in publications or presentations arising from this work. More details at
     http://www.quantum-espresso.org/quote

     Parallel version (MPI), running on     1 processors

     This program is part of the open-source Quantum ESPRESSO suite
     for quantum simulation of materials; please cite
         "P. Giannozzi et al., J. Phys.:Condens. Matter 21 395502 (2009);
          URL http://www.quantum-espresso.org", 
     in publications or presentations arising from this work. More details at
     http://www.quantum-espresso.org/quote

     Parallel version (MPI), running on     1 processors
     Program PWSCF v.6.1 (svn rev. 13369) starts on  3Jul2022 at 12:25:51 

     This program is part of the open-source Quantum ESPRESSO suite
     for quantum simulation of materials; please cite
         "P. Giannozzi et al., J. Phys.:Condens. Matter 21 395502 (2009);
          URL http://www.quantum-espresso.org", 
     in publications or presentations arising from this work. More details at
     http://www.quantum-espresso.org/quote

     Parallel version (MPI), running on     1 processors

     Program PWSCF v.6.1 (svn rev. 13369) starts on  3Jul2022 at 12:25:51 

     This program is part of the open-source Quantum ESPRESSO suite
     for quantum simulation of materials; please cite
         "P. Giannozzi et al., J. Phys.:Condens. Matter 21 395502 (2009);
          URL http://www.quantum-espresso.org", 
     for quantum simulation of materials; please cite
         "P. Giannozzi et al., J. Phys.:Condens. Matter 21 395502 (2009);
          URL http://www.quantum-espresso.org", 
     in publications or presentations arising from this work. More details at
     http://www.quantum-espresso.org/quote

     Parallel version (MPI), running on     1 processors
     in publications or presentations arising from this work. More details at
     http://www.quantum-espresso.org/quote

     Parallel version (MPI), running on     1 processors

     Program PWSCF v.6.1 (svn rev. 13369) starts on  3Jul2022 at 12:25:51 

     This program is part of the open-source Quantum ESPRESSO suite
     for quantum simulation of materials; please cite
         "P. Giannozzi et al., J. Phys.:Condens. Matter 21 395502 (2009);
          URL http://www.quantum-espresso.org", 
     in publications or presentations arising from this work. More details at
     http://www.quantum-espresso.org/quote

     Parallel version (MPI), running on     1 processors

     Program PWSCF v.6.1 (svn rev. 13369) starts on  3Jul2022 at 12:25:51 

     This program is part of the open-source Quantum ESPRESSO suite
     for quantum simulation of materials; please cite
         "P. Giannozzi et al., J. Phys.:Condens. Matter 21 395502 (2009);
          URL http://www.quantum-espresso.org", 
     in publications or presentations arising from this work. More details at
     http://www.quantum-espresso.org/quote

     Parallel version (MPI), running on     1 processors
     Reading input from ./GdH2_0.8.in
     Reading input from ./GdH2_0.8.in
     Reading input from ./GdH2_0.8.in
     Reading input from ./GdH2_0.8.in
     Reading input from ./GdH2_0.8.in
     Reading input from ./GdH2_0.8.in
     Reading input from ./GdH2_0.8.in
     Reading input from ./GdH2_0.8.in
     Reading input from ./GdH2_0.8.in
     Reading input from ./GdH2_0.8.in
     Reading input from ./GdH2_0.8.in
     Reading input from ./GdH2_0.8.in
     Reading input from ./GdH2_0.8.in
     Reading input from ./GdH2_0.8.in
     Reading input from ./GdH2_0.8.in
     Reading input from ./GdH2_0.8.in
Warning: card &CELL ignored
Warning: card / ignored
Warning: card &CELL ignored
Warning: card / ignored
Warning: card &CELL ignored
Warning: card / ignored
Warning: card &CELL ignored
Warning: card / ignored
Warning: card &CELL ignored
Warning: card / ignored
Warning: card &CELL ignored
Warning: card / ignored
Warning: card &CELL ignored
Warning: card / ignored
Warning: card &CELL ignored
Warning: card / ignored
Warning: card &CELL ignored
Warning: card / ignored
Warning: card &CELL ignored
Warning: card / ignored
Warning: card &CELL ignored
Warning: card / ignored
Warning: card &CELL ignored
Warning: card / ignored
Warning: card &CELL ignored
Warning: card / ignored
Warning: card &CELL ignored
Warning: card / ignored
Warning: card &CELL ignored
Warning: card / ignored
Warning: card &CELL ignored
Warning: card / ignored

     Current dimensions of program PWSCF are:
     Max number of different atomic species (ntypx) = 10
     Max number of k-points (npk) =  40000
     Max angular momentum in pseudopotentials (lmaxx) =  3

     Current dimensions of program PWSCF are:
     Max number of different atomic species (ntypx) = 10
     Max number of k-points (npk) =  40000
     Max angular momentum in pseudopotentials (lmaxx) =  3

     Current dimensions of program PWSCF are:
     Max number of different atomic species (ntypx) = 10
     Max number of k-points (npk) =  40000
     Max angular momentum in pseudopotentials (lmaxx) =  3

     Current dimensions of program PWSCF are:
     Max number of different atomic species (ntypx) = 10
     Max number of k-points (npk) =  40000
     Max angular momentum in pseudopotentials (lmaxx) =  3

     Current dimensions of program PWSCF are:
     Max number of different atomic species (ntypx) = 10
     Max number of k-points (npk) =  40000
     Max angular momentum in pseudopotentials (lmaxx) =  3


     Current dimensions of program PWSCF are:
     Max number of different atomic species (ntypx) = 10
     Max number of k-points (npk) =  40000
     Max angular momentum in pseudopotentials (lmaxx) =  3

     Current dimensions of program PWSCF are:
     Max number of different atomic species (ntypx) = 10
     Max number of k-points (npk) =  40000
     Max angular momentum in pseudopotentials (lmaxx) =  3

     Current dimensions of program PWSCF are:
     Max number of different atomic species (ntypx) = 10
     Max number of k-points (npk) =  40000
     Max angular momentum in pseudopotentials (lmaxx) =  3

     Current dimensions of program PWSCF are:
     Max number of different atomic species (ntypx) = 10
     Max number of k-points (npk) =  40000
     Max angular momentum in pseudopotentials (lmaxx) =  3


     Current dimensions of program PWSCF are:
     Max number of different atomic species (ntypx) = 10
     Max number of k-points (npk) =  40000
     Max angular momentum in pseudopotentials (lmaxx) =  3

     Current dimensions of program PWSCF are:
     Max number of different atomic species (ntypx) = 10
     Max number of k-points (npk) =  40000
     Max angular momentum in pseudopotentials (lmaxx) =  3


     Current dimensions of program PWSCF are:
     Max number of different atomic species (ntypx) = 10
     Max number of k-points (npk) =  40000
     Current dimensions of program PWSCF are:
     Max number of different atomic species (ntypx) = 10
     Max number of k-points (npk) =  40000
     Max angular momentum in pseudopotentials (lmaxx) =  3
     Current dimensions of program PWSCF are:
     Max number of different atomic species (ntypx) = 10
     Max number of k-points (npk) =  40000
     Max angular momentum in pseudopotentials (lmaxx) =  3
     Max angular momentum in pseudopotentials (lmaxx) =  3

     Current dimensions of program PWSCF are:
     Max number of different atomic species (ntypx) = 10
     Max number of k-points (npk) =  40000
     Max angular momentum in pseudopotentials (lmaxx) =  3
     Current dimensions of program PWSCF are:
     Max number of different atomic species (ntypx) = 10
     Max number of k-points (npk) =  40000
     Max angular momentum in pseudopotentials (lmaxx) =  3
               file Gd.GGA-PBE-paw-v1.0.UPF: wavefunction(s)  Xn Xn Xn Xn Xn Xn renormalized
               file Gd.GGA-PBE-paw-v1.0.UPF: wavefunction(s)  Xn Xn Xn Xn Xn Xn renormalized
               file Gd.GGA-PBE-paw-v1.0.UPF: wavefunction(s)  Xn Xn Xn Xn Xn Xn renormalized
               file Gd.GGA-PBE-paw-v1.0.UPF: wavefunction(s)  Xn Xn Xn Xn Xn Xn renormalized
               file Gd.GGA-PBE-paw-v1.0.UPF: wavefunction(s)  Xn Xn Xn Xn Xn Xn renormalized
               file Gd.GGA-PBE-paw-v1.0.UPF: wavefunction(s)  Xn Xn Xn Xn Xn Xn renormalized
               file Gd.GGA-PBE-paw-v1.0.UPF: wavefunction(s)  Xn Xn Xn Xn Xn Xn renormalized

     Subspace diagonalization in iterative solution of the eigenvalue problem:
     a serial algorithm will be used

     Found symmetry operation: I + (  0.0000 -0.5000 -0.5000)
     This is a supercell, fractional translations are disabled

     Subspace diagonalization in iterative solution of the eigenvalue problem:
     a serial algorithm will be used

 
     G-vector sticks info
     --------------------
     sticks:   dense  smooth     PW     G-vecs:    dense   smooth      PW
     Sum        1369    1369    405                38497    38497    6043
 


     bravais-lattice index     =            0
     lattice parameter (alat)  =       9.3029  a.u.
     unit-cell volume          =     805.1182 (a.u.)^3
     number of atoms/cell      =           12
     number of atomic types    =            2
     number of electrons       =        80.00
     number of Kohn-Sham states=           48
     kinetic-energy cutoff     =      50.0000  Ry
     charge density cutoff     =     200.0000  Ry
     convergence threshold     =      1.0E-06
     mixing beta               =       0.7000
     number of iterations used =            8  plain     mixing
     Exchange-correlation      = PBE ( 1  4  3  4 0 0)
     nstep                     =          150


     celldm(1)=   9.302933  celldm(2)=   0.000000  celldm(3)=   0.000000
     celldm(4)=   0.000000  celldm(5)=   0.000000  celldm(6)=   0.000000

     crystal axes: (cart. coord. in units of alat)
               a(1) = (   1.000000   0.000000   0.000000 )  
               a(2) = (   0.000000   1.000000   0.000000 )  
               a(3) = (   0.000000   0.000000   1.000000 )  

     reciprocal axes: (cart. coord. in units 2 pi/alat)
               b(1) = (  1.000000  0.000000  0.000000 )  
               b(2) = (  0.000000  1.000000  0.000000 )  
               b(3) = (  0.000000  0.000000  1.000000 )  


     PseudoPot. # 1 for Gd read from file:
     /home/shaharpit/AcHProject/meam_fit/dft/qe_potentials/Gd.GGA-PBE-paw-v1.0.UPF
     MD5 check sum: 3e8e0d208da550914ae52eaf991d13de
     Pseudo is Projector augmented-wave + core cor, Zval = 18.0
     Generated using ATOMPAW code
     Shape of augmentation charge: BESSEL
     Using radial grid of 1110 points,  8 beta functions with: 
                l(1) =   0
                l(2) =   0
                l(3) =   1
                l(4) =   1
                l(5) =   2
                l(6) =   2
                l(7) =   3
                l(8) =   3
     Q(r) pseudized with 0 coefficients 


     PseudoPot. # 2 for  H read from file:
     /home/shaharpit/AcHProject/meam_fit/dft/qe_potentials/H.pbe-rrkjus_psl.1.0.0.UPF
     MD5 check sum: f52b6d4d1c606e5624b1dc7b2218f220
     Pseudo is Ultrasoft, Zval =  1.0
     Generated using "atomic" code by A. Dal Corso  v.5.1
     Using radial grid of  929 points,  2 beta functions with: 
                l(1) =   0
                l(2) =   0
     Q(r) pseudized with 0 coefficients 


     atomic species   valence    mass     pseudopotential
        Gd            18.00   157.25000     Gd( 1.00)
        H              1.00     1.00794      H( 1.00)

     48 Sym. Ops., with inversion, found



   Cartesian axes

     site n.     atom                  positions (alat units)
         1           Gd  tau(   1) = (   0.0000000   0.0000000   0.0000000  )
         2           Gd  tau(   2) = (   0.0000000   0.5000000   0.5000000  )
         3           Gd  tau(   3) = (   0.5000000   0.0000000   0.5000000  )
         4           Gd  tau(   4) = (   0.5000000   0.5000000   0.0000000  )
         5           H   tau(   5) = (   0.2500000   0.2500000   0.2500000  )
         6           H   tau(   6) = (   0.2500000   0.7500000   0.7500000  )
         7           H   tau(   7) = (   0.7500000   0.2500000   0.7500000  )
         8           H   tau(   8) = (   0.7500000   0.7500000   0.2500000  )
         9           H   tau(   9) = (   0.2500000   0.7500000   0.2500000  )
        10           H   tau(  10) = (   0.2500000   0.2500000   0.7500000  )
        11           H   tau(  11) = (   0.7500000   0.7500000   0.7500000  )
        12           H   tau(  12) = (   0.7500000   0.2500000   0.2500000  )

     number of k points=    10  gaussian smearing, width (Ry)=  0.0100
                       cart. coord. in units 2pi/alat
        k(    1) = (   0.0000000   0.0000000   0.0000000), wk =   0.0312500
        k(    2) = (   0.0000000   0.0000000   0.2500000), wk =   0.1875000
        k(    3) = (   0.0000000   0.0000000  -0.5000000), wk =   0.0937500
        k(    4) = (   0.0000000   0.2500000   0.2500000), wk =   0.3750000
        k(    5) = (   0.0000000   0.2500000  -0.5000000), wk =   0.3750000
        k(    6) = (   0.0000000  -0.5000000  -0.5000000), wk =   0.0937500
        k(    7) = (   0.2500000   0.2500000   0.2500000), wk =   0.2500000
        k(    8) = (   0.2500000   0.2500000  -0.5000000), wk =   0.3750000
        k(    9) = (   0.2500000  -0.5000000  -0.5000000), wk =   0.1875000
        k(   10) = (  -0.5000000  -0.5000000  -0.5000000), wk =   0.0312500

     Dense  grid:    38497 G-vectors     FFT dimensions: (  45,  45,  45)

     Estimated max dynamical RAM per process >     100.95MB
     Found symmetry operation: I + (  0.0000 -0.5000 -0.5000)
     This is a supercell, fractional translations are disabled
 
     G-vector sticks info
     --------------------
     sticks:   dense  smooth     PW     G-vecs:    dense   smooth      PW
     Sum        1369    1369    405                38497    38497    6043
 


     bravais-lattice index     =            0
     lattice parameter (alat)  =       9.3029  a.u.
     unit-cell volume          =     805.1182 (a.u.)^3
     number of atoms/cell      =           12
     number of atomic types    =            2
     number of electrons       =        80.00
     number of Kohn-Sham states=           48
     kinetic-energy cutoff     =      50.0000  Ry
     charge density cutoff     =     200.0000  Ry
     convergence threshold     =      1.0E-06
     mixing beta               =       0.7000
     number of iterations used =            8  plain     mixing
     Exchange-correlation      = PBE ( 1  4  3  4 0 0)
     nstep                     =          150


     celldm(1)=   9.302933  celldm(2)=   0.000000  celldm(3)=   0.000000
     celldm(4)=   0.000000  celldm(5)=   0.000000  celldm(6)=   0.000000

     crystal axes: (cart. coord. in units of alat)
               a(1) = (   1.000000   0.000000   0.000000 )  
               a(2) = (   0.000000   1.000000   0.000000 )  
               a(3) = (   0.000000   0.000000   1.000000 )  

     reciprocal axes: (cart. coord. in units 2 pi/alat)
               b(1) = (  1.000000  0.000000  0.000000 )  
               b(2) = (  0.000000  1.000000  0.000000 )  
               b(3) = (  0.000000  0.000000  1.000000 )  


     PseudoPot. # 1 for Gd read from file:
     /home/shaharpit/AcHProject/meam_fit/dft/qe_potentials/Gd.GGA-PBE-paw-v1.0.UPF
     MD5 check sum: 3e8e0d208da550914ae52eaf991d13de
     Pseudo is Projector augmented-wave + core cor, Zval = 18.0
     Generated using ATOMPAW code
     Shape of augmentation charge: BESSEL
     Using radial grid of 1110 points,  8 beta functions with: 
                l(1) =   0
                l(2) =   0
                l(3) =   1
                l(4) =   1
                l(5) =   2
                l(6) =   2
                l(7) =   3
                l(8) =   3
     Q(r) pseudized with 0 coefficients 


     PseudoPot. # 2 for  H read from file:
     /home/shaharpit/AcHProject/meam_fit/dft/qe_potentials/H.pbe-rrkjus_psl.1.0.0.UPF
     MD5 check sum: f52b6d4d1c606e5624b1dc7b2218f220
     Pseudo is Ultrasoft, Zval =  1.0
     Generated using "atomic" code by A. Dal Corso  v.5.1
     Using radial grid of  929 points,  2 beta functions with: 
                l(1) =   0
                l(2) =   0
     Q(r) pseudized with 0 coefficients 


     atomic species   valence    mass     pseudopotential
        Gd            18.00   157.25000     Gd( 1.00)
        H              1.00     1.00794      H( 1.00)

     48 Sym. Ops., with inversion, found



   Cartesian axes

     site n.     atom                  positions (alat units)
         1           Gd  tau(   1) = (   0.0000000   0.0000000   0.0000000  )
         2           Gd  tau(   2) = (   0.0000000   0.5000000   0.5000000  )
         3           Gd  tau(   3) = (   0.5000000   0.0000000   0.5000000  )
         4           Gd  tau(   4) = (   0.5000000   0.5000000   0.0000000  )
         5           H   tau(   5) = (   0.2500000   0.2500000   0.2500000  )
         6           H   tau(   6) = (   0.2500000   0.7500000   0.7500000  )
         7           H   tau(   7) = (   0.7500000   0.2500000   0.7500000  )
         8           H   tau(   8) = (   0.7500000   0.7500000   0.2500000  )
         9           H   tau(   9) = (   0.2500000   0.7500000   0.2500000  )
        10           H   tau(  10) = (   0.2500000   0.2500000   0.7500000  )
        11           H   tau(  11) = (   0.7500000   0.7500000   0.7500000  )
        12           H   tau(  12) = (   0.7500000   0.2500000   0.2500000  )

     number of k points=    10  gaussian smearing, width (Ry)=  0.0100
                       cart. coord. in units 2pi/alat
        k(    1) = (   0.0000000   0.0000000   0.0000000), wk =   0.0312500
        k(    2) = (   0.0000000   0.0000000   0.2500000), wk =   0.1875000
        k(    3) = (   0.0000000   0.0000000  -0.5000000), wk =   0.0937500
        k(    4) = (   0.0000000   0.2500000   0.2500000), wk =   0.3750000
        k(    5) = (   0.0000000   0.2500000  -0.5000000), wk =   0.3750000
        k(    6) = (   0.0000000  -0.5000000  -0.5000000), wk =   0.0937500
        k(    7) = (   0.2500000   0.2500000   0.2500000), wk =   0.2500000
        k(    8) = (   0.2500000   0.2500000  -0.5000000), wk =   0.3750000
        k(    9) = (   0.2500000  -0.5000000  -0.5000000), wk =   0.1875000
        k(   10) = (  -0.5000000  -0.5000000  -0.5000000), wk =   0.0312500

     Dense  grid:    38497 G-vectors     FFT dimensions: (  45,  45,  45)

     Estimated max dynamical RAM per process >     100.95MB

     Subspace diagonalization in iterative solution of the eigenvalue problem:
     a serial algorithm will be used

               file Gd.GGA-PBE-paw-v1.0.UPF: wavefunction(s)  Xn Xn Xn Xn Xn Xn renormalized
               file Gd.GGA-PBE-paw-v1.0.UPF: wavefunction(s)  Xn Xn Xn Xn Xn Xn renormalized
               file Gd.GGA-PBE-paw-v1.0.UPF: wavefunction(s)  Xn Xn Xn Xn Xn Xn renormalized
     Found symmetry operation: I + (  0.0000 -0.5000 -0.5000)
     This is a supercell, fractional translations are disabled
 
     G-vector sticks info
     --------------------
     sticks:   dense  smooth     PW     G-vecs:    dense   smooth      PW
     Sum        1369    1369    405                38497    38497    6043
 


     bravais-lattice index     =            0
     lattice parameter (alat)  =       9.3029  a.u.
     unit-cell volume          =     805.1182 (a.u.)^3
     number of atoms/cell      =           12
     number of atomic types    =            2
     number of electrons       =        80.00
     number of Kohn-Sham states=           48
     kinetic-energy cutoff     =      50.0000  Ry
     charge density cutoff     =     200.0000  Ry
     convergence threshold     =      1.0E-06
     mixing beta               =       0.7000
     number of iterations used =            8  plain     mixing
     Exchange-correlation      = PBE ( 1  4  3  4 0 0)
     nstep                     =          150


     celldm(1)=   9.302933  celldm(2)=   0.000000  celldm(3)=   0.000000
     celldm(4)=   0.000000  celldm(5)=   0.000000  celldm(6)=   0.000000

     crystal axes: (cart. coord. in units of alat)
               a(1) = (   1.000000   0.000000   0.000000 )  
               a(2) = (   0.000000   1.000000   0.000000 )  
               a(3) = (   0.000000   0.000000   1.000000 )  

     reciprocal axes: (cart. coord. in units 2 pi/alat)
               b(1) = (  1.000000  0.000000  0.000000 )  
               b(2) = (  0.000000  1.000000  0.000000 )  
               b(3) = (  0.000000  0.000000  1.000000 )  


     PseudoPot. # 1 for Gd read from file:
     /home/shaharpit/AcHProject/meam_fit/dft/qe_potentials/Gd.GGA-PBE-paw-v1.0.UPF
     MD5 check sum: 3e8e0d208da550914ae52eaf991d13de
     Pseudo is Projector augmented-wave + core cor, Zval = 18.0
     Generated using ATOMPAW code
     Shape of augmentation charge: BESSEL
     Using radial grid of 1110 points,  8 beta functions with: 
                l(1) =   0
                l(2) =   0
                l(3) =   1
                l(4) =   1
                l(5) =   2
                l(6) =   2
                l(7) =   3
                l(8) =   3
     Q(r) pseudized with 0 coefficients 


     PseudoPot. # 2 for  H read from file:
     /home/shaharpit/AcHProject/meam_fit/dft/qe_potentials/H.pbe-rrkjus_psl.1.0.0.UPF
     MD5 check sum: f52b6d4d1c606e5624b1dc7b2218f220
     Pseudo is Ultrasoft, Zval =  1.0
     Generated using "atomic" code by A. Dal Corso  v.5.1
     Using radial grid of  929 points,  2 beta functions with: 
                l(1) =   0
                l(2) =   0
     Q(r) pseudized with 0 coefficients 


     atomic species   valence    mass     pseudopotential
        Gd            18.00   157.25000     Gd( 1.00)
        H              1.00     1.00794      H( 1.00)

     48 Sym. Ops., with inversion, found



   Cartesian axes

     site n.     atom                  positions (alat units)
         1           Gd  tau(   1) = (   0.0000000   0.0000000   0.0000000  )
         2           Gd  tau(   2) = (   0.0000000   0.5000000   0.5000000  )
         3           Gd  tau(   3) = (   0.5000000   0.0000000   0.5000000  )
         4           Gd  tau(   4) = (   0.5000000   0.5000000   0.0000000  )
         5           H   tau(   5) = (   0.2500000   0.2500000   0.2500000  )
         6           H   tau(   6) = (   0.2500000   0.7500000   0.7500000  )
         7           H   tau(   7) = (   0.7500000   0.2500000   0.7500000  )
         8           H   tau(   8) = (   0.7500000   0.7500000   0.2500000  )
         9           H   tau(   9) = (   0.2500000   0.7500000   0.2500000  )
        10           H   tau(  10) = (   0.2500000   0.2500000   0.7500000  )
        11           H   tau(  11) = (   0.7500000   0.7500000   0.7500000  )
        12           H   tau(  12) = (   0.7500000   0.2500000   0.2500000  )

     number of k points=    10  gaussian smearing, width (Ry)=  0.0100
                       cart. coord. in units 2pi/alat
        k(    1) = (   0.0000000   0.0000000   0.0000000), wk =   0.0312500
        k(    2) = (   0.0000000   0.0000000   0.2500000), wk =   0.1875000
        k(    3) = (   0.0000000   0.0000000  -0.5000000), wk =   0.0937500
        k(    4) = (   0.0000000   0.2500000   0.2500000), wk =   0.3750000
        k(    5) = (   0.0000000   0.2500000  -0.5000000), wk =   0.3750000
        k(    6) = (   0.0000000  -0.5000000  -0.5000000), wk =   0.0937500
        k(    7) = (   0.2500000   0.2500000   0.2500000), wk =   0.2500000
        k(    8) = (   0.2500000   0.2500000  -0.5000000), wk =   0.3750000
        k(    9) = (   0.2500000  -0.5000000  -0.5000000), wk =   0.1875000
        k(   10) = (  -0.5000000  -0.5000000  -0.5000000), wk =   0.0312500

     Dense  grid:    38497 G-vectors     FFT dimensions: (  45,  45,  45)

     Estimated max dynamical RAM per process >     100.95MB


     Subspace diagonalization in iterative solution of the eigenvalue problem:
     a serial algorithm will be used

     Subspace diagonalization in iterative solution of the eigenvalue problem:
     a serial algorithm will be used


     Subspace diagonalization in iterative solution of the eigenvalue problem:
     a serial algorithm will be used

     Found symmetry operation: I + (  0.0000 -0.5000 -0.5000)
     Found symmetry operation: I + (  0.0000 -0.5000 -0.5000)
     This is a supercell, fractional translations are disabled
     Found symmetry operation: I + (  0.0000 -0.5000 -0.5000)
     This is a supercell, fractional translations are disabled
     This is a supercell, fractional translations are disabled
 
 
 
     G-vector sticks info
     --------------------
     sticks:   dense  smooth     PW     G-vecs:    dense   smooth      PW
     Sum        1369    1369    405                38497    38497    6043
 


     Subspace diagonalization in iterative solution of the eigenvalue problem:

     a serial algorithm will be used

     bravais-lattice index     =            0
     lattice parameter (alat)  =       9.3029  a.u.
     unit-cell volume          =     805.1182 (a.u.)^3
     number of atoms/cell      =           12
     number of atomic types    =            2
     number of electrons       =        80.00
     number of Kohn-Sham states=           48
     kinetic-energy cutoff     =      50.0000  Ry
     charge density cutoff     =     200.0000  Ry
     convergence threshold     =      1.0E-06
     mixing beta               =       0.7000
     number of iterations used =            8  plain     mixing
     Exchange-correlation      = PBE ( 1  4  3  4 0 0)
     nstep                     =          150


     celldm(1)=   9.302933  celldm(2)=   0.000000  celldm(3)=   0.000000
     celldm(4)=   0.000000  celldm(5)=   0.000000  celldm(6)=   0.000000

     crystal axes: (cart. coord. in units of alat)
               a(1) = (   1.000000   0.000000   0.000000 )  
     G-vector sticks info
     --------------------
     sticks:   dense  smooth     PW     G-vecs:    dense   smooth      PW
               a(2) = (   0.000000   1.000000   0.000000 )  
     Sum        1369    1369    405                38497    38497    6043
 
               a(3) = (   0.000000   0.000000   1.000000 )  


     bravais-lattice index     =            0
     lattice parameter (alat)  =       9.3029  a.u.
     unit-cell volume          =     805.1182 (a.u.)^3

     number of atoms/cell      =           12
     number of atomic types    =            2
     number of electrons       =        80.00
     number of Kohn-Sham states=           48
     kinetic-energy cutoff     =      50.0000  Ry
     charge density cutoff     =     200.0000  Ry
     convergence threshold     =      1.0E-06
     mixing beta               =       0.7000
     number of iterations used =            8  plain     mixing
     Exchange-correlation      = PBE ( 1  4  3  4 0 0)
     reciprocal axes: (cart. coord. in units 2 pi/alat)
     nstep                     =          150


     celldm(1)=   9.302933  celldm(2)=   0.000000  celldm(3)=   0.000000
     celldm(4)=   0.000000  celldm(5)=   0.000000  celldm(6)=   0.000000

     crystal axes: (cart. coord. in units of alat)
               a(1) = (   1.000000   0.000000   0.000000 )  
               b(1) = (  1.000000  0.000000  0.000000 )  
               a(2) = (   0.000000   1.000000   0.000000 )  
               a(3) = (   0.000000   0.000000   1.000000 )  

     reciprocal axes: (cart. coord. in units 2 pi/alat)
               b(1) = (  1.000000  0.000000  0.000000 )  
               b(2) = (  0.000000  1.000000  0.000000 )  
               b(3) = (  0.000000  0.000000  1.000000 )  


     PseudoPot. # 1 for Gd read from file:
     /home/shaharpit/AcHProject/meam_fit/dft/qe_potentials/Gd.GGA-PBE-paw-v1.0.UPF
     MD5 check sum: 3e8e0d208da550914ae52eaf991d13de
               b(2) = (  0.000000  1.000000  0.000000 )  
     Pseudo is Projector augmented-wave + core cor, Zval = 18.0
     Generated using ATOMPAW code
     Shape of augmentation charge: BESSEL
     Using radial grid of 1110 points,  8 beta functions with: 
                l(1) =   0
                l(2) =   0
                l(3) =   1
                l(4) =   1
                l(5) =   2
                l(6) =   2
               b(3) = (  0.000000  0.000000  1.000000 )  

                l(7) =   3
                l(8) =   3
     Q(r) pseudized with 0 coefficients 


     PseudoPot. # 2 for  H read from file:
     /home/shaharpit/AcHProject/meam_fit/dft/qe_potentials/H.pbe-rrkjus_psl.1.0.0.UPF
     MD5 check sum: f52b6d4d1c606e5624b1dc7b2218f220
     Pseudo is Ultrasoft, Zval =  1.0
     Generated using "atomic" code by A. Dal Corso  v.5.1
     Using radial grid of  929 points,  2 beta functions with: 
                l(1) =   0
                l(2) =   0
     Q(r) pseudized with 0 coefficients 



     atomic species   valence    mass     pseudopotential
        Gd            18.00   157.25000     Gd( 1.00)
        H              1.00     1.00794      H( 1.00)

     48 Sym. Ops., with inversion, found



   Cartesian axes

     PseudoPot. # 1 for Gd read from file:
     site n.     atom                  positions (alat units)
         1           Gd  tau(   1) = (   0.0000000   0.0000000   0.0000000  )
         2           Gd  tau(   2) = (   0.0000000   0.5000000   0.5000000  )
         3           Gd  tau(   3) = (   0.5000000   0.0000000   0.5000000  )
         4           Gd  tau(   4) = (   0.5000000   0.5000000   0.0000000  )
         5           H   tau(   5) = (   0.2500000   0.2500000   0.2500000  )
         6           H   tau(   6) = (   0.2500000   0.7500000   0.7500000  )
         7           H   tau(   7) = (   0.7500000   0.2500000   0.7500000  )
         8           H   tau(   8) = (   0.7500000   0.7500000   0.2500000  )
         9           H   tau(   9) = (   0.2500000   0.7500000   0.2500000  )
     /home/shaharpit/AcHProject/meam_fit/dft/qe_potentials/Gd.GGA-PBE-paw-v1.0.UPF
        10           H   tau(  10) = (   0.2500000   0.2500000   0.7500000  )
        11           H   tau(  11) = (   0.7500000   0.7500000   0.7500000  )
        12           H   tau(  12) = (   0.7500000   0.2500000   0.2500000  )

     number of k points=    10  gaussian smearing, width (Ry)=  0.0100
                       cart. coord. in units 2pi/alat
        k(    1) = (   0.0000000   0.0000000   0.0000000), wk =   0.0312500
        k(    2) = (   0.0000000   0.0000000   0.2500000), wk =   0.1875000
        k(    3) = (   0.0000000   0.0000000  -0.5000000), wk =   0.0937500
        k(    4) = (   0.0000000   0.2500000   0.2500000), wk =   0.3750000
        k(    5) = (   0.0000000   0.2500000  -0.5000000), wk =   0.3750000
        k(    6) = (   0.0000000  -0.5000000  -0.5000000), wk =   0.0937500
        k(    7) = (   0.2500000   0.2500000   0.2500000), wk =   0.2500000
        k(    8) = (   0.2500000   0.2500000  -0.5000000), wk =   0.3750000
        k(    9) = (   0.2500000  -0.5000000  -0.5000000), wk =   0.1875000
        k(   10) = (  -0.5000000  -0.5000000  -0.5000000), wk =   0.0312500

     Dense  grid:    38497 G-vectors     FFT dimensions: (  45,  45,  45)

     Estimated max dynamical RAM per process >     100.95MB
     G-vector sticks info
     --------------------
     sticks:   dense  smooth     PW     G-vecs:    dense   smooth      PW
     Sum        1369    1369    405                38497    38497    6043
 
     MD5 check sum: 3e8e0d208da550914ae52eaf991d13de
     Pseudo is Projector augmented-wave + core cor, Zval = 18.0
     Generated using ATOMPAW code
     Shape of augmentation charge: BESSEL
     Using radial grid of 1110 points,  8 beta functions with: 

                l(1) =   0
                l(2) =   0
                l(3) =   1
                l(4) =   1
                l(5) =   2
                l(6) =   2

                l(7) =   3
                l(8) =   3
     Q(r) pseudized with 0 coefficients 


     PseudoPot. # 2 for  H read from file:
     /home/shaharpit/AcHProject/meam_fit/dft/qe_potentials/H.pbe-rrkjus_psl.1.0.0.UPF
     MD5 check sum: f52b6d4d1c606e5624b1dc7b2218f220
     Pseudo is Ultrasoft, Zval =  1.0
     Generated using "atomic" code by A. Dal Corso  v.5.1
     Using radial grid of  929 points,  2 beta functions with: 
                l(1) =   0
     bravais-lattice index     =            0
                l(2) =   0
     Q(r) pseudized with 0 coefficients 


     atomic species   valence    mass     pseudopotential
        Gd            18.00   157.25000     Gd( 1.00)
        H              1.00     1.00794      H( 1.00)

     48 Sym. Ops., with inversion, found



   Cartesian axes

     site n.     atom                  positions (alat units)
         1           Gd  tau(   1) = (   0.0000000   0.0000000   0.0000000  )
         2           Gd  tau(   2) = (   0.0000000   0.5000000   0.5000000  )
         3           Gd  tau(   3) = (   0.5000000   0.0000000   0.5000000  )
         4           Gd  tau(   4) = (   0.5000000   0.5000000   0.0000000  )
         5           H   tau(   5) = (   0.2500000   0.2500000   0.2500000  )
     lattice parameter (alat)  =       9.3029  a.u.
         6           H   tau(   6) = (   0.2500000   0.7500000   0.7500000  )
         7           H   tau(   7) = (   0.7500000   0.2500000   0.7500000  )
         8           H   tau(   8) = (   0.7500000   0.7500000   0.2500000  )
         9           H   tau(   9) = (   0.2500000   0.7500000   0.2500000  )
        10           H   tau(  10) = (   0.2500000   0.2500000   0.7500000  )
        11           H   tau(  11) = (   0.7500000   0.7500000   0.7500000  )
        12           H   tau(  12) = (   0.7500000   0.2500000   0.2500000  )

     number of k points=    10  gaussian smearing, width (Ry)=  0.0100
                       cart. coord. in units 2pi/alat
        k(    1) = (   0.0000000   0.0000000   0.0000000), wk =   0.0312500
        k(    2) = (   0.0000000   0.0000000   0.2500000), wk =   0.1875000
        k(    3) = (   0.0000000   0.0000000  -0.5000000), wk =   0.0937500
        k(    4) = (   0.0000000   0.2500000   0.2500000), wk =   0.3750000
     unit-cell volume          =     805.1182 (a.u.)^3
        k(    5) = (   0.0000000   0.2500000  -0.5000000), wk =   0.3750000
        k(    6) = (   0.0000000  -0.5000000  -0.5000000), wk =   0.0937500
        k(    7) = (   0.2500000   0.2500000   0.2500000), wk =   0.2500000
        k(    8) = (   0.2500000   0.2500000  -0.5000000), wk =   0.3750000
        k(    9) = (   0.2500000  -0.5000000  -0.5000000), wk =   0.1875000
        k(   10) = (  -0.5000000  -0.5000000  -0.5000000), wk =   0.0312500

     Dense  grid:    38497 G-vectors     FFT dimensions: (  45,  45,  45)

     Estimated max dynamical RAM per process >     100.95MB
     number of atoms/cell      =           12
     number of atomic types    =            2
     number of electrons       =        80.00
     number of Kohn-Sham states=           48
     kinetic-energy cutoff     =      50.0000  Ry
     charge density cutoff     =     200.0000  Ry
     convergence threshold     =      1.0E-06
     mixing beta               =       0.7000
     number of iterations used =            8  plain     mixing
     Exchange-correlation      = PBE ( 1  4  3  4 0 0)
     nstep                     =          150


     celldm(1)=   9.302933  celldm(2)=   0.000000  celldm(3)=   0.000000
     celldm(4)=   0.000000  celldm(5)=   0.000000  celldm(6)=   0.000000

     crystal axes: (cart. coord. in units of alat)
               a(1) = (   1.000000   0.000000   0.000000 )  
               a(2) = (   0.000000   1.000000   0.000000 )  
               a(3) = (   0.000000   0.000000   1.000000 )  

     reciprocal axes: (cart. coord. in units 2 pi/alat)
               b(1) = (  1.000000  0.000000  0.000000 )  
               b(2) = (  0.000000  1.000000  0.000000 )  
               b(3) = (  0.000000  0.000000  1.000000 )  


     PseudoPot. # 1 for Gd read from file:
     /home/shaharpit/AcHProject/meam_fit/dft/qe_potentials/Gd.GGA-PBE-paw-v1.0.UPF
     MD5 check sum: 3e8e0d208da550914ae52eaf991d13de
     Pseudo is Projector augmented-wave + core cor, Zval = 18.0
     Generated using ATOMPAW code
     Shape of augmentation charge: BESSEL
     Using radial grid of 1110 points,  8 beta functions with: 
                l(1) =   0
                l(2) =   0
                l(3) =   1
                l(4) =   1
                l(5) =   2
                l(6) =   2
                l(7) =   3
                l(8) =   3
     Q(r) pseudized with 0 coefficients 


     PseudoPot. # 2 for  H read from file:
     /home/shaharpit/AcHProject/meam_fit/dft/qe_potentials/H.pbe-rrkjus_psl.1.0.0.UPF
     MD5 check sum: f52b6d4d1c606e5624b1dc7b2218f220
     Pseudo is Ultrasoft, Zval =  1.0
     Generated using "atomic" code by A. Dal Corso  v.5.1
     Using radial grid of  929 points,  2 beta functions with: 
                l(1) =   0
                l(2) =   0
     Q(r) pseudized with 0 coefficients 


     atomic species   valence    mass     pseudopotential
        Gd            18.00   157.25000     Gd( 1.00)
        H              1.00     1.00794      H( 1.00)

     48 Sym. Ops., with inversion, found



   Cartesian axes

     site n.     atom                  positions (alat units)
         1           Gd  tau(   1) = (   0.0000000   0.0000000   0.0000000  )
         2           Gd  tau(   2) = (   0.0000000   0.5000000   0.5000000  )
         3           Gd  tau(   3) = (   0.5000000   0.0000000   0.5000000  )
         4           Gd  tau(   4) = (   0.5000000   0.5000000   0.0000000  )
         5           H   tau(   5) = (   0.2500000   0.2500000   0.2500000  )
         6           H   tau(   6) = (   0.2500000   0.7500000   0.7500000  )
         7           H   tau(   7) = (   0.7500000   0.2500000   0.7500000  )
         8           H   tau(   8) = (   0.7500000   0.7500000   0.2500000  )
         9           H   tau(   9) = (   0.2500000   0.7500000   0.2500000  )
        10           H   tau(  10) = (   0.2500000   0.2500000   0.7500000  )
        11           H   tau(  11) = (   0.7500000   0.7500000   0.7500000  )
        12           H   tau(  12) = (   0.7500000   0.2500000   0.2500000  )

     number of k points=    10  gaussian smearing, width (Ry)=  0.0100
                       cart. coord. in units 2pi/alat
        k(    1) = (   0.0000000   0.0000000   0.0000000), wk =   0.0312500
        k(    2) = (   0.0000000   0.0000000   0.2500000), wk =   0.1875000
        k(    3) = (   0.0000000   0.0000000  -0.5000000), wk =   0.0937500
        k(    4) = (   0.0000000   0.2500000   0.2500000), wk =   0.3750000
        k(    5) = (   0.0000000   0.2500000  -0.5000000), wk =   0.3750000
        k(    6) = (   0.0000000  -0.5000000  -0.5000000), wk =   0.0937500
        k(    7) = (   0.2500000   0.2500000   0.2500000), wk =   0.2500000
        k(    8) = (   0.2500000   0.2500000  -0.5000000), wk =   0.3750000
        k(    9) = (   0.2500000  -0.5000000  -0.5000000), wk =   0.1875000
        k(   10) = (  -0.5000000  -0.5000000  -0.5000000), wk =   0.0312500

     Dense  grid:    38497 G-vectors     FFT dimensions: (  45,  45,  45)

     Estimated max dynamical RAM per process >     100.95MB
     Found symmetry operation: I + (  0.0000 -0.5000 -0.5000)
     This is a supercell, fractional translations are disabled
 
     G-vector sticks info
     --------------------
     sticks:   dense  smooth     PW     G-vecs:    dense   smooth      PW
     Sum        1369    1369    405                38497    38497    6043
 


     bravais-lattice index     =            0
     lattice parameter (alat)  =       9.3029  a.u.
     unit-cell volume          =     805.1182 (a.u.)^3
     number of atoms/cell      =           12
     number of atomic types    =            2
     number of electrons       =        80.00
     number of Kohn-Sham states=           48
     kinetic-energy cutoff     =      50.0000  Ry
     charge density cutoff     =     200.0000  Ry
     convergence threshold     =      1.0E-06
     mixing beta               =       0.7000
     number of iterations used =            8  plain     mixing
     Exchange-correlation      = PBE ( 1  4  3  4 0 0)
     nstep                     =          150


     celldm(1)=   9.302933  celldm(2)=   0.000000  celldm(3)=   0.000000
     celldm(4)=   0.000000  celldm(5)=   0.000000  celldm(6)=   0.000000

     crystal axes: (cart. coord. in units of alat)
               a(1) = (   1.000000   0.000000   0.000000 )  
               a(2) = (   0.000000   1.000000   0.000000 )  
               a(3) = (   0.000000   0.000000   1.000000 )  

     reciprocal axes: (cart. coord. in units 2 pi/alat)
               b(1) = (  1.000000  0.000000  0.000000 )  
               b(2) = (  0.000000  1.000000  0.000000 )  
               b(3) = (  0.000000  0.000000  1.000000 )  


     PseudoPot. # 1 for Gd read from file:
     /home/shaharpit/AcHProject/meam_fit/dft/qe_potentials/Gd.GGA-PBE-paw-v1.0.UPF
     MD5 check sum: 3e8e0d208da550914ae52eaf991d13de
     Pseudo is Projector augmented-wave + core cor, Zval = 18.0
     Generated using ATOMPAW code
     Shape of augmentation charge: BESSEL
     Using radial grid of 1110 points,  8 beta functions with: 
                l(1) =   0
                l(2) =   0
                l(3) =   1
                l(4) =   1
                l(5) =   2
                l(6) =   2
                l(7) =   3
                l(8) =   3
     Q(r) pseudized with 0 coefficients 


     PseudoPot. # 2 for  H read from file:
     /home/shaharpit/AcHProject/meam_fit/dft/qe_potentials/H.pbe-rrkjus_psl.1.0.0.UPF
     MD5 check sum: f52b6d4d1c606e5624b1dc7b2218f220
     Pseudo is Ultrasoft, Zval =  1.0
     Generated using "atomic" code by A. Dal Corso  v.5.1
     Using radial grid of  929 points,  2 beta functions with: 
                l(1) =   0
                l(2) =   0
     Q(r) pseudized with 0 coefficients 


     atomic species   valence    mass     pseudopotential
        Gd            18.00   157.25000     Gd( 1.00)
        H              1.00     1.00794      H( 1.00)

     48 Sym. Ops., with inversion, found



   Cartesian axes

     site n.     atom                  positions (alat units)
         1           Gd  tau(   1) = (   0.0000000   0.0000000   0.0000000  )
         2           Gd  tau(   2) = (   0.0000000   0.5000000   0.5000000  )
         3           Gd  tau(   3) = (   0.5000000   0.0000000   0.5000000  )
         4           Gd  tau(   4) = (   0.5000000   0.5000000   0.0000000  )
         5           H   tau(   5) = (   0.2500000   0.2500000   0.2500000  )
         6           H   tau(   6) = (   0.2500000   0.7500000   0.7500000  )
         7           H   tau(   7) = (   0.7500000   0.2500000   0.7500000  )
         8           H   tau(   8) = (   0.7500000   0.7500000   0.2500000  )
         9           H   tau(   9) = (   0.2500000   0.7500000   0.2500000  )
        10           H   tau(  10) = (   0.2500000   0.2500000   0.7500000  )
        11           H   tau(  11) = (   0.7500000   0.7500000   0.7500000  )
        12           H   tau(  12) = (   0.7500000   0.2500000   0.2500000  )

     number of k points=    10  gaussian smearing, width (Ry)=  0.0100
                       cart. coord. in units 2pi/alat
        k(    1) = (   0.0000000   0.0000000   0.0000000), wk =   0.0312500
        k(    2) = (   0.0000000   0.0000000   0.2500000), wk =   0.1875000
        k(    3) = (   0.0000000   0.0000000  -0.5000000), wk =   0.0937500
        k(    4) = (   0.0000000   0.2500000   0.2500000), wk =   0.3750000
        k(    5) = (   0.0000000   0.2500000  -0.5000000), wk =   0.3750000
        k(    6) = (   0.0000000  -0.5000000  -0.5000000), wk =   0.0937500
        k(    7) = (   0.2500000   0.2500000   0.2500000), wk =   0.2500000
        k(    8) = (   0.2500000   0.2500000  -0.5000000), wk =   0.3750000
        k(    9) = (   0.2500000  -0.5000000  -0.5000000), wk =   0.1875000
        k(   10) = (  -0.5000000  -0.5000000  -0.5000000), wk =   0.0312500

     Dense  grid:    38497 G-vectors     FFT dimensions: (  45,  45,  45)

     Estimated max dynamical RAM per process >     100.95MB

     Subspace diagonalization in iterative solution of the eigenvalue problem:
     a serial algorithm will be used


     Subspace diagonalization in iterative solution of the eigenvalue problem:
     a serial algorithm will be used

     Found symmetry operation: I + (  0.0000 -0.5000 -0.5000)
     This is a supercell, fractional translations are disabled
     Found symmetry operation: I + (  0.0000 -0.5000 -0.5000)
     This is a supercell, fractional translations are disabled

     Subspace diagonalization in iterative solution of the eigenvalue problem:
     a serial algorithm will be used

 
     G-vector sticks info
     --------------------
     sticks:   dense  smooth     PW     G-vecs:    dense   smooth      PW
     Sum        1369    1369    405                38497    38497    6043
 


     bravais-lattice index     =            0
     lattice parameter (alat)  =       9.3029  a.u.
     unit-cell volume          =     805.1182 (a.u.)^3
     number of atoms/cell      =           12
     number of atomic types    =            2
     number of electrons       =        80.00
     number of Kohn-Sham states=           48
     kinetic-energy cutoff     =      50.0000  Ry
     charge density cutoff     =     200.0000  Ry
     convergence threshold     =      1.0E-06
     mixing beta               =       0.7000
     number of iterations used =            8  plain     mixing
     Exchange-correlation      = PBE ( 1  4  3  4 0 0)
     nstep                     =          150


     celldm(1)=   9.302933  celldm(2)=   0.000000  celldm(3)=   0.000000
     celldm(4)=   0.000000  celldm(5)=   0.000000  celldm(6)=   0.000000

     crystal axes: (cart. coord. in units of alat)
               a(1) = (   1.000000   0.000000   0.000000 )  
               a(2) = (   0.000000   1.000000   0.000000 )  
               a(3) = (   0.000000   0.000000   1.000000 )  

     reciprocal axes: (cart. coord. in units 2 pi/alat)
               b(1) = (  1.000000  0.000000  0.000000 )  
               b(2) = (  0.000000  1.000000  0.000000 )  
               b(3) = (  0.000000  0.000000  1.000000 )  


     PseudoPot. # 1 for Gd read from file:
     /home/shaharpit/AcHProject/meam_fit/dft/qe_potentials/Gd.GGA-PBE-paw-v1.0.UPF
     MD5 check sum: 3e8e0d208da550914ae52eaf991d13de
     Pseudo is Projector augmented-wave + core cor, Zval = 18.0
     Generated using ATOMPAW code
     Shape of augmentation charge: BESSEL
     Using radial grid of 1110 points,  8 beta functions with: 
                l(1) =   0
                l(2) =   0
                l(3) =   1
                l(4) =   1
                l(5) =   2
                l(6) =   2
                l(7) =   3
                l(8) =   3
     Q(r) pseudized with 0 coefficients 


     PseudoPot. # 2 for  H read from file:
     /home/shaharpit/AcHProject/meam_fit/dft/qe_potentials/H.pbe-rrkjus_psl.1.0.0.UPF
     MD5 check sum: f52b6d4d1c606e5624b1dc7b2218f220
     Pseudo is Ultrasoft, Zval =  1.0
     Generated using "atomic" code by A. Dal Corso  v.5.1
     Using radial grid of  929 points,  2 beta functions with: 
                l(1) =   0
                l(2) =   0
     Q(r) pseudized with 0 coefficients 


     atomic species   valence    mass     pseudopotential
        Gd            18.00   157.25000     Gd( 1.00)
        H              1.00     1.00794      H( 1.00)

     48 Sym. Ops., with inversion, found



   Cartesian axes

     site n.     atom                  positions (alat units)
         1           Gd  tau(   1) = (   0.0000000   0.0000000   0.0000000  )
         2           Gd  tau(   2) = (   0.0000000   0.5000000   0.5000000  )
         3           Gd  tau(   3) = (   0.5000000   0.0000000   0.5000000  )
         4           Gd  tau(   4) = (   0.5000000   0.5000000   0.0000000  )
         5           H   tau(   5) = (   0.2500000   0.2500000   0.2500000  )
         6           H   tau(   6) = (   0.2500000   0.7500000   0.7500000  )
         7           H   tau(   7) = (   0.7500000   0.2500000   0.7500000  )
         8           H   tau(   8) = (   0.7500000   0.7500000   0.2500000  )
         9           H   tau(   9) = (   0.2500000   0.7500000   0.2500000  )
        10           H   tau(  10) = (   0.2500000   0.2500000   0.7500000  )
        11           H   tau(  11) = (   0.7500000   0.7500000   0.7500000  )
        12           H   tau(  12) = (   0.7500000   0.2500000   0.2500000  )

     number of k points=    10  gaussian smearing, width (Ry)=  0.0100
                       cart. coord. in units 2pi/alat
        k(    1) = (   0.0000000   0.0000000   0.0000000), wk =   0.0312500
        k(    2) = (   0.0000000   0.0000000   0.2500000), wk =   0.1875000
        k(    3) = (   0.0000000   0.0000000  -0.5000000), wk =   0.0937500
        k(    4) = (   0.0000000   0.2500000   0.2500000), wk =   0.3750000
        k(    5) = (   0.0000000   0.2500000  -0.5000000), wk =   0.3750000
        k(    6) = (   0.0000000  -0.5000000  -0.5000000), wk =   0.0937500
        k(    7) = (   0.2500000   0.2500000   0.2500000), wk =   0.2500000
        k(    8) = (   0.2500000   0.2500000  -0.5000000), wk =   0.3750000
        k(    9) = (   0.2500000  -0.5000000  -0.5000000), wk =   0.1875000
        k(   10) = (  -0.5000000  -0.5000000  -0.5000000), wk =   0.0312500

     Dense  grid:    38497 G-vectors     FFT dimensions: (  45,  45,  45)

     Estimated max dynamical RAM per process >     100.95MB
 
     G-vector sticks info
     --------------------
     sticks:   dense  smooth     PW     G-vecs:    dense   smooth      PW
     Sum        1369    1369    405                38497    38497    6043
 


     bravais-lattice index     =            0
     lattice parameter (alat)  =       9.3029  a.u.
     unit-cell volume          =     805.1182 (a.u.)^3
     number of atoms/cell      =           12
     number of atomic types    =            2
     number of electrons       =        80.00
     number of Kohn-Sham states=           48
     kinetic-energy cutoff     =      50.0000  Ry
     charge density cutoff     =     200.0000  Ry
     convergence threshold     =      1.0E-06
     mixing beta               =       0.7000
     number of iterations used =            8  plain     mixing
     Exchange-correlation      = PBE ( 1  4  3  4 0 0)
     nstep                     =          150


     celldm(1)=   9.302933  celldm(2)=   0.000000  celldm(3)=   0.000000
     celldm(4)=   0.000000  celldm(5)=   0.000000  celldm(6)=   0.000000

     crystal axes: (cart. coord. in units of alat)
               a(1) = (   1.000000   0.000000   0.000000 )  
               a(2) = (   0.000000   1.000000   0.000000 )  
               a(3) = (   0.000000   0.000000   1.000000 )  

     reciprocal axes: (cart. coord. in units 2 pi/alat)
               b(1) = (  1.000000  0.000000  0.000000 )  
               b(2) = (  0.000000  1.000000  0.000000 )  
               b(3) = (  0.000000  0.000000  1.000000 )  


     PseudoPot. # 1 for Gd read from file:
     /home/shaharpit/AcHProject/meam_fit/dft/qe_potentials/Gd.GGA-PBE-paw-v1.0.UPF
     MD5 check sum: 3e8e0d208da550914ae52eaf991d13de
     Pseudo is Projector augmented-wave + core cor, Zval = 18.0
     Generated using ATOMPAW code
     Shape of augmentation charge: BESSEL
     Using radial grid of 1110 points,  8 beta functions with: 
                l(1) =   0
                l(2) =   0
                l(3) =   1
                l(4) =   1
                l(5) =   2
                l(6) =   2
     Found symmetry operation: I + (  0.0000 -0.5000 -0.5000)
     This is a supercell, fractional translations are disabled
                l(7) =   3
                l(8) =   3
     Q(r) pseudized with 0 coefficients 


     PseudoPot. # 2 for  H read from file:
     /home/shaharpit/AcHProject/meam_fit/dft/qe_potentials/H.pbe-rrkjus_psl.1.0.0.UPF
     MD5 check sum: f52b6d4d1c606e5624b1dc7b2218f220
     Pseudo is Ultrasoft, Zval =  1.0
     Generated using "atomic" code by A. Dal Corso  v.5.1
     Using radial grid of  929 points,  2 beta functions with: 
                l(1) =   0
                l(2) =   0
     Q(r) pseudized with 0 coefficients 


     atomic species   valence    mass     pseudopotential
        Gd            18.00   157.25000     Gd( 1.00)
        H              1.00     1.00794      H( 1.00)

     48 Sym. Ops., with inversion, found



   Cartesian axes

     site n.     atom                  positions (alat units)
         1           Gd  tau(   1) = (   0.0000000   0.0000000   0.0000000  )
         2           Gd  tau(   2) = (   0.0000000   0.5000000   0.5000000  )
         3           Gd  tau(   3) = (   0.5000000   0.0000000   0.5000000  )
         4           Gd  tau(   4) = (   0.5000000   0.5000000   0.0000000  )
         5           H   tau(   5) = (   0.2500000   0.2500000   0.2500000  )
         6           H   tau(   6) = (   0.2500000   0.7500000   0.7500000  )
         7           H   tau(   7) = (   0.7500000   0.2500000   0.7500000  )
         8           H   tau(   8) = (   0.7500000   0.7500000   0.2500000  )
         9           H   tau(   9) = (   0.2500000   0.7500000   0.2500000  )
        10           H   tau(  10) = (   0.2500000   0.2500000   0.7500000  )
        11           H   tau(  11) = (   0.7500000   0.7500000   0.7500000  )
        12           H   tau(  12) = (   0.7500000   0.2500000   0.2500000  )

     number of k points=    10  gaussian smearing, width (Ry)=  0.0100
                       cart. coord. in units 2pi/alat
        k(    1) = (   0.0000000   0.0000000   0.0000000), wk =   0.0312500
        k(    2) = (   0.0000000   0.0000000   0.2500000), wk =   0.1875000
        k(    3) = (   0.0000000   0.0000000  -0.5000000), wk =   0.0937500
        k(    4) = (   0.0000000   0.2500000   0.2500000), wk =   0.3750000
        k(    5) = (   0.0000000   0.2500000  -0.5000000), wk =   0.3750000
        k(    6) = (   0.0000000  -0.5000000  -0.5000000), wk =   0.0937500
        k(    7) = (   0.2500000   0.2500000   0.2500000), wk =   0.2500000
        k(    8) = (   0.2500000   0.2500000  -0.5000000), wk =   0.3750000
        k(    9) = (   0.2500000  -0.5000000  -0.5000000), wk =   0.1875000
        k(   10) = (  -0.5000000  -0.5000000  -0.5000000), wk =   0.0312500

     Dense  grid:    38497 G-vectors     FFT dimensions: (  45,  45,  45)

     Estimated max dynamical RAM per process >     100.95MB
 
     G-vector sticks info
     --------------------
     sticks:   dense  smooth     PW     G-vecs:    dense   smooth      PW
     Sum        1369    1369    405                38497    38497    6043
 


     bravais-lattice index     =            0
     lattice parameter (alat)  =       9.3029  a.u.
     unit-cell volume          =     805.1182 (a.u.)^3
     number of atoms/cell      =           12
     number of atomic types    =            2
     number of electrons       =        80.00
     number of Kohn-Sham states=           48
     kinetic-energy cutoff     =      50.0000  Ry
     charge density cutoff     =     200.0000  Ry
     convergence threshold     =      1.0E-06
     mixing beta               =       0.7000
     number of iterations used =            8  plain     mixing
     Exchange-correlation      = PBE ( 1  4  3  4 0 0)
     nstep                     =          150


     celldm(1)=   9.302933  celldm(2)=   0.000000  celldm(3)=   0.000000
     celldm(4)=   0.000000  celldm(5)=   0.000000  celldm(6)=   0.000000

     crystal axes: (cart. coord. in units of alat)
               a(1) = (   1.000000   0.000000   0.000000 )  
               a(2) = (   0.000000   1.000000   0.000000 )  
               a(3) = (   0.000000   0.000000   1.000000 )  

     reciprocal axes: (cart. coord. in units 2 pi/alat)
               b(1) = (  1.000000  0.000000  0.000000 )  
               b(2) = (  0.000000  1.000000  0.000000 )  
               b(3) = (  0.000000  0.000000  1.000000 )  


     PseudoPot. # 1 for Gd read from file:
     /home/shaharpit/AcHProject/meam_fit/dft/qe_potentials/Gd.GGA-PBE-paw-v1.0.UPF
     MD5 check sum: 3e8e0d208da550914ae52eaf991d13de
     Pseudo is Projector augmented-wave + core cor, Zval = 18.0
     Generated using ATOMPAW code
     Shape of augmentation charge: BESSEL
     Using radial grid of 1110 points,  8 beta functions with: 
                l(1) =   0
                l(2) =   0
                l(3) =   1
                l(4) =   1
                l(5) =   2
                l(6) =   2
                l(7) =   3
                l(8) =   3
     Q(r) pseudized with 0 coefficients 


     PseudoPot. # 2 for  H read from file:
     /home/shaharpit/AcHProject/meam_fit/dft/qe_potentials/H.pbe-rrkjus_psl.1.0.0.UPF
     MD5 check sum: f52b6d4d1c606e5624b1dc7b2218f220
     Pseudo is Ultrasoft, Zval =  1.0
     Generated using "atomic" code by A. Dal Corso  v.5.1
     Using radial grid of  929 points,  2 beta functions with: 
                l(1) =   0
                l(2) =   0
     Q(r) pseudized with 0 coefficients 


     atomic species   valence    mass     pseudopotential
        Gd            18.00   157.25000     Gd( 1.00)
        H              1.00     1.00794      H( 1.00)

     48 Sym. Ops., with inversion, found



   Cartesian axes

     site n.     atom                  positions (alat units)
         1           Gd  tau(   1) = (   0.0000000   0.0000000   0.0000000  )
         2           Gd  tau(   2) = (   0.0000000   0.5000000   0.5000000  )
         3           Gd  tau(   3) = (   0.5000000   0.0000000   0.5000000  )
         4           Gd  tau(   4) = (   0.5000000   0.5000000   0.0000000  )
         5           H   tau(   5) = (   0.2500000   0.2500000   0.2500000  )
         6           H   tau(   6) = (   0.2500000   0.7500000   0.7500000  )
         7           H   tau(   7) = (   0.7500000   0.2500000   0.7500000  )
         8           H   tau(   8) = (   0.7500000   0.7500000   0.2500000  )
         9           H   tau(   9) = (   0.2500000   0.7500000   0.2500000  )
        10           H   tau(  10) = (   0.2500000   0.2500000   0.7500000  )
        11           H   tau(  11) = (   0.7500000   0.7500000   0.7500000  )
        12           H   tau(  12) = (   0.7500000   0.2500000   0.2500000  )

     number of k points=    10  gaussian smearing, width (Ry)=  0.0100
                       cart. coord. in units 2pi/alat
        k(    1) = (   0.0000000   0.0000000   0.0000000), wk =   0.0312500
        k(    2) = (   0.0000000   0.0000000   0.2500000), wk =   0.1875000
        k(    3) = (   0.0000000   0.0000000  -0.5000000), wk =   0.0937500
        k(    4) = (   0.0000000   0.2500000   0.2500000), wk =   0.3750000
        k(    5) = (   0.0000000   0.2500000  -0.5000000), wk =   0.3750000
        k(    6) = (   0.0000000  -0.5000000  -0.5000000), wk =   0.0937500
        k(    7) = (   0.2500000   0.2500000   0.2500000), wk =   0.2500000
        k(    8) = (   0.2500000   0.2500000  -0.5000000), wk =   0.3750000
        k(    9) = (   0.2500000  -0.5000000  -0.5000000), wk =   0.1875000
        k(   10) = (  -0.5000000  -0.5000000  -0.5000000), wk =   0.0312500

     Dense  grid:    38497 G-vectors     FFT dimensions: (  45,  45,  45)

     Estimated max dynamical RAM per process >     100.95MB
               file Gd.GGA-PBE-paw-v1.0.UPF: wavefunction(s)  Xn Xn Xn Xn Xn Xn renormalized
               file Gd.GGA-PBE-paw-v1.0.UPF: wavefunction(s)  Xn Xn Xn Xn Xn Xn renormalized
               file Gd.GGA-PBE-paw-v1.0.UPF: wavefunction(s)  Xn Xn Xn Xn Xn Xn renormalized
               file Gd.GGA-PBE-paw-v1.0.UPF: wavefunction(s)  Xn Xn Xn Xn Xn Xn renormalized
               file Gd.GGA-PBE-paw-v1.0.UPF: wavefunction(s)  Xn Xn Xn Xn Xn Xn renormalized
               file Gd.GGA-PBE-paw-v1.0.UPF: wavefunction(s)  Xn Xn Xn Xn Xn Xn renormalized


     Subspace diagonalization in iterative solution of the eigenvalue problem:
     a serial algorithm will be used


     Subspace diagonalization in iterative solution of the eigenvalue problem:
     a serial algorithm will be used

     Subspace diagonalization in iterative solution of the eigenvalue problem:
     a serial algorithm will be used


     Subspace diagonalization in iterative solution of the eigenvalue problem:
     a serial algorithm will be used

     Found symmetry operation: I + (  0.0000 -0.5000 -0.5000)
     Found symmetry operation: I + (  0.0000 -0.5000 -0.5000)
     This is a supercell, fractional translations are disabled
     This is a supercell, fractional translations are disabled
     Found symmetry operation: I + (  0.0000 -0.5000 -0.5000)
     This is a supercell, fractional translations are disabled
     Found symmetry operation: I + (  0.0000 -0.5000 -0.5000)
 
     This is a supercell, fractional translations are disabled
 

     Subspace diagonalization in iterative solution of the eigenvalue problem:
     a serial algorithm will be used

 
     G-vector sticks info
     --------------------
     sticks:   dense  smooth     PW     G-vecs:    dense   smooth      PW
     Sum        1369    1369    405                38497    38497    6043
 


     bravais-lattice index     =            0
     lattice parameter (alat)  =       9.3029  a.u.
     unit-cell volume          =     805.1182 (a.u.)^3
     number of atoms/cell      =           12
     number of atomic types    =            2
     number of electrons       =        80.00
     number of Kohn-Sham states=           48
     kinetic-energy cutoff     =      50.0000  Ry
     charge density cutoff     =     200.0000  Ry
     convergence threshold     =      1.0E-06
     mixing beta               =       0.7000
     number of iterations used =            8  plain     mixing
     Exchange-correlation      = PBE ( 1  4  3  4 0 0)
     nstep                     =          150


     celldm(1)=   9.302933  celldm(2)=   0.000000  celldm(3)=   0.000000
     celldm(4)=   0.000000  celldm(5)=   0.000000  celldm(6)=   0.000000

     crystal axes: (cart. coord. in units of alat)
               a(1) = (   1.000000   0.000000   0.000000 )  
               a(2) = (   0.000000   1.000000   0.000000 )  
               a(3) = (   0.000000   0.000000   1.000000 )  

     reciprocal axes: (cart. coord. in units 2 pi/alat)
               b(1) = (  1.000000  0.000000  0.000000 )  
               b(2) = (  0.000000  1.000000  0.000000 )  
               b(3) = (  0.000000  0.000000  1.000000 )  
 
     G-vector sticks info
     --------------------
     sticks:   dense  smooth     PW     G-vecs:    dense   smooth      PW
     Sum        1369    1369    405                38497    38497    6043
 
     G-vector sticks info


     bravais-lattice index     =            0
     lattice parameter (alat)  =       9.3029  a.u.
     unit-cell volume          =     805.1182 (a.u.)^3
     number of atoms/cell      =           12
     number of atomic types    =            2
     number of electrons       =        80.00
     number of Kohn-Sham states=           48
     kinetic-energy cutoff     =      50.0000  Ry
     charge density cutoff     =     200.0000  Ry
     convergence threshold     =      1.0E-06
     mixing beta               =       0.7000
     --------------------
     sticks:   dense  smooth     PW     G-vecs:    dense   smooth      PW
     number of iterations used =            8  plain     mixing
     Exchange-correlation      = PBE ( 1  4  3  4 0 0)
     nstep                     =          150


     celldm(1)=   9.302933  celldm(2)=   0.000000  celldm(3)=   0.000000
     celldm(4)=   0.000000  celldm(5)=   0.000000  celldm(6)=   0.000000

     crystal axes: (cart. coord. in units of alat)
               a(1) = (   1.000000   0.000000   0.000000 )  
               a(2) = (   0.000000   1.000000   0.000000 )  
               a(3) = (   0.000000   0.000000   1.000000 )  

     reciprocal axes: (cart. coord. in units 2 pi/alat)
               b(1) = (  1.000000  0.000000  0.000000 )  
               b(2) = (  0.000000  1.000000  0.000000 )  
               b(3) = (  0.000000  0.000000  1.000000 )  


     PseudoPot. # 1 for Gd read from file:
     /home/shaharpit/AcHProject/meam_fit/dft/qe_potentials/Gd.GGA-PBE-paw-v1.0.UPF
     MD5 check sum: 3e8e0d208da550914ae52eaf991d13de
     Pseudo is Projector augmented-wave + core cor, Zval = 18.0
     Generated using ATOMPAW code
     Shape of augmentation charge: BESSEL
     Using radial grid of 1110 points,  8 beta functions with: 
                l(1) =   0
                l(2) =   0
                l(3) =   1
                l(4) =   1
                l(5) =   2
                l(6) =   2
                l(7) =   3
                l(8) =   3
     Q(r) pseudized with 0 coefficients 
     Sum        1369    1369    405                38497    38497    6043
 


     PseudoPot. # 2 for  H read from file:
     /home/shaharpit/AcHProject/meam_fit/dft/qe_potentials/H.pbe-rrkjus_psl.1.0.0.UPF
     MD5 check sum: f52b6d4d1c606e5624b1dc7b2218f220
     Pseudo is Ultrasoft, Zval =  1.0
     Generated using "atomic" code by A. Dal Corso  v.5.1
     Using radial grid of  929 points,  2 beta functions with: 
                l(1) =   0
                l(2) =   0
     Q(r) pseudized with 0 coefficients 


     atomic species   valence    mass     pseudopotential
        Gd            18.00   157.25000     Gd( 1.00)
        H              1.00     1.00794      H( 1.00)

     48 Sym. Ops., with inversion, found



   Cartesian axes

     site n.     atom                  positions (alat units)
         1           Gd  tau(   1) = (   0.0000000   0.0000000   0.0000000  )
         2           Gd  tau(   2) = (   0.0000000   0.5000000   0.5000000  )
         3           Gd  tau(   3) = (   0.5000000   0.0000000   0.5000000  )
         4           Gd  tau(   4) = (   0.5000000   0.5000000   0.0000000  )
         5           H   tau(   5) = (   0.2500000   0.2500000   0.2500000  )
         6           H   tau(   6) = (   0.2500000   0.7500000   0.7500000  )
         7           H   tau(   7) = (   0.7500000   0.2500000   0.7500000  )
         8           H   tau(   8) = (   0.7500000   0.7500000   0.2500000  )
         9           H   tau(   9) = (   0.2500000   0.7500000   0.2500000  )
        10           H   tau(  10) = (   0.2500000   0.2500000   0.7500000  )
        11           H   tau(  11) = (   0.7500000   0.7500000   0.7500000  )
        12           H   tau(  12) = (   0.7500000   0.2500000   0.2500000  )

     number of k points=    10  gaussian smearing, width (Ry)=  0.0100
                       cart. coord. in units 2pi/alat
        k(    1) = (   0.0000000   0.0000000   0.0000000), wk =   0.0312500
        k(    2) = (   0.0000000   0.0000000   0.2500000), wk =   0.1875000
        k(    3) = (   0.0000000   0.0000000  -0.5000000), wk =   0.0937500
        k(    4) = (   0.0000000   0.2500000   0.2500000), wk =   0.3750000
        k(    5) = (   0.0000000   0.2500000  -0.5000000), wk =   0.3750000
        k(    6) = (   0.0000000  -0.5000000  -0.5000000), wk =   0.0937500
        k(    7) = (   0.2500000   0.2500000   0.2500000), wk =   0.2500000
        k(    8) = (   0.2500000   0.2500000  -0.5000000), wk =   0.3750000
        k(    9) = (   0.2500000  -0.5000000  -0.5000000), wk =   0.1875000
        k(   10) = (  -0.5000000  -0.5000000  -0.5000000), wk =   0.0312500

     Dense  grid:    38497 G-vectors     FFT dimensions: (  45,  45,  45)

     Estimated max dynamical RAM per process >     100.95MB


     PseudoPot. # 1 for Gd read from file:
     /home/shaharpit/AcHProject/meam_fit/dft/qe_potentials/Gd.GGA-PBE-paw-v1.0.UPF
     MD5 check sum: 3e8e0d208da550914ae52eaf991d13de
     Pseudo is Projector augmented-wave + core cor, Zval = 18.0
     Generated using ATOMPAW code
     Shape of augmentation charge: BESSEL
     Using radial grid of 1110 points,  8 beta functions with: 
                l(1) =   0
                l(2) =   0
                l(3) =   1
                l(4) =   1
                l(5) =   2
                l(6) =   2
                l(7) =   3
                l(8) =   3
     Q(r) pseudized with 0 coefficients 


     PseudoPot. # 2 for  H read from file:
     /home/shaharpit/AcHProject/meam_fit/dft/qe_potentials/H.pbe-rrkjus_psl.1.0.0.UPF
     MD5 check sum: f52b6d4d1c606e5624b1dc7b2218f220
     Pseudo is Ultrasoft, Zval =  1.0
     Generated using "atomic" code by A. Dal Corso  v.5.1
     Using radial grid of  929 points,  2 beta functions with: 
                l(1) =   0
                l(2) =   0
     Q(r) pseudized with 0 coefficients 


     atomic species   valence    mass     pseudopotential
        Gd            18.00   157.25000     Gd( 1.00)
        H              1.00     1.00794      H( 1.00)

     48 Sym. Ops., with inversion, found



   Cartesian axes

     site n.     atom                  positions (alat units)
         1           Gd  tau(   1) = (   0.0000000   0.0000000   0.0000000  )
         2           Gd  tau(   2) = (   0.0000000   0.5000000   0.5000000  )
         3           Gd  tau(   3) = (   0.5000000   0.0000000   0.5000000  )
         4           Gd  tau(   4) = (   0.5000000   0.5000000   0.0000000  )
         5           H   tau(   5) = (   0.2500000   0.2500000   0.2500000  )
         6           H   tau(   6) = (   0.2500000   0.7500000   0.7500000  )
         7           H   tau(   7) = (   0.7500000   0.2500000   0.7500000  )
         8           H   tau(   8) = (   0.7500000   0.7500000   0.2500000  )
         9           H   tau(   9) = (   0.2500000   0.7500000   0.2500000  )
        10           H   tau(  10) = (   0.2500000   0.2500000   0.7500000  )
        11           H   tau(  11) = (   0.7500000   0.7500000   0.7500000  )
        12           H   tau(  12) = (   0.7500000   0.2500000   0.2500000  )

     number of k points=    10  gaussian smearing, width (Ry)=  0.0100
                       cart. coord. in units 2pi/alat
        k(    1) = (   0.0000000   0.0000000   0.0000000), wk =   0.0312500
        k(    2) = (   0.0000000   0.0000000   0.2500000), wk =   0.1875000
        k(    3) = (   0.0000000   0.0000000  -0.5000000), wk =   0.0937500
        k(    4) = (   0.0000000   0.2500000   0.2500000), wk =   0.3750000
        k(    5) = (   0.0000000   0.2500000  -0.5000000), wk =   0.3750000
        k(    6) = (   0.0000000  -0.5000000  -0.5000000), wk =   0.0937500
        k(    7) = (   0.2500000   0.2500000   0.2500000), wk =   0.2500000
        k(    8) = (   0.2500000   0.2500000  -0.5000000), wk =   0.3750000
        k(    9) = (   0.2500000  -0.5000000  -0.5000000), wk =   0.1875000
        k(   10) = (  -0.5000000  -0.5000000  -0.5000000), wk =   0.0312500

     Dense  grid:    38497 G-vectors     FFT dimensions: (  45,  45,  45)

     Estimated max dynamical RAM per process >     100.95MB
     Found symmetry operation: I + (  0.0000 -0.5000 -0.5000)


     bravais-lattice index     =            0
     lattice parameter (alat)  =       9.3029  a.u.
     unit-cell volume          =     805.1182 (a.u.)^3
     number of atoms/cell      =           12
     number of atomic types    =            2
     number of electrons       =        80.00
     number of Kohn-Sham states=           48
     kinetic-energy cutoff     =      50.0000  Ry
     charge density cutoff     =     200.0000  Ry
     convergence threshold     =      1.0E-06
     mixing beta               =       0.7000
     number of iterations used =            8  plain     mixing
     Exchange-correlation      = PBE ( 1  4  3  4 0 0)
     nstep                     =          150


     celldm(1)=   9.302933  celldm(2)=   0.000000  celldm(3)=   0.000000
     celldm(4)=   0.000000  celldm(5)=   0.000000  celldm(6)=   0.000000

     crystal axes: (cart. coord. in units of alat)
               a(1) = (   1.000000   0.000000   0.000000 )  
               a(2) = (   0.000000   1.000000   0.000000 )  
               a(3) = (   0.000000   0.000000   1.000000 )  

     reciprocal axes: (cart. coord. in units 2 pi/alat)
               b(1) = (  1.000000  0.000000  0.000000 )  
               b(2) = (  0.000000  1.000000  0.000000 )  
               b(3) = (  0.000000  0.000000  1.000000 )  


     PseudoPot. # 1 for Gd read from file:
     /home/shaharpit/AcHProject/meam_fit/dft/qe_potentials/Gd.GGA-PBE-paw-v1.0.UPF
     MD5 check sum: 3e8e0d208da550914ae52eaf991d13de
     Pseudo is Projector augmented-wave + core cor, Zval = 18.0
     Generated using ATOMPAW code
     Shape of augmentation charge: BESSEL
     Using radial grid of 1110 points,  8 beta functions with: 
                l(1) =   0
                l(2) =   0
                l(3) =   1
                l(4) =   1
                l(5) =   2
                l(6) =   2
                l(7) =   3
                l(8) =   3
     Q(r) pseudized with 0 coefficients 


     PseudoPot. # 2 for  H read from file:
     /home/shaharpit/AcHProject/meam_fit/dft/qe_potentials/H.pbe-rrkjus_psl.1.0.0.UPF
     MD5 check sum: f52b6d4d1c606e5624b1dc7b2218f220
     Pseudo is Ultrasoft, Zval =  1.0
     Generated using "atomic" code by A. Dal Corso  v.5.1
     Using radial grid of  929 points,  2 beta functions with: 
                l(1) =   0
                l(2) =   0
     Q(r) pseudized with 0 coefficients 


     atomic species   valence    mass     pseudopotential
        Gd            18.00   157.25000     Gd( 1.00)
        H              1.00     1.00794      H( 1.00)

     48 Sym. Ops., with inversion, found



   Cartesian axes

     site n.     atom                  positions (alat units)
         1           Gd  tau(   1) = (   0.0000000   0.0000000   0.0000000  )
         2           Gd  tau(   2) = (   0.0000000   0.5000000   0.5000000  )
         3           Gd  tau(   3) = (   0.5000000   0.0000000   0.5000000  )
         4           Gd  tau(   4) = (   0.5000000   0.5000000   0.0000000  )
         5           H   tau(   5) = (   0.2500000   0.2500000   0.2500000  )
         6           H   tau(   6) = (   0.2500000   0.7500000   0.7500000  )
         7           H   tau(   7) = (   0.7500000   0.2500000   0.7500000  )
         8           H   tau(   8) = (   0.7500000   0.7500000   0.2500000  )
         9           H   tau(   9) = (   0.2500000   0.7500000   0.2500000  )
        10           H   tau(  10) = (   0.2500000   0.2500000   0.7500000  )
        11           H   tau(  11) = (   0.7500000   0.7500000   0.7500000  )
        12           H   tau(  12) = (   0.7500000   0.2500000   0.2500000  )

     number of k points=    10  gaussian smearing, width (Ry)=  0.0100
                       cart. coord. in units 2pi/alat
[...]
     xc contribution           =     -96.92534324 Ry
     ewald contribution        =    -668.42744267 Ry
     one-center paw contrib.   =   -1864.39098356 Ry
     smearing contrib. (-TS)   =      -0.04997982 Ry

     convergence has been achieved in  91 iterations
     ethr =  5.60E-09,  avg # of iterations =  1.4

     total cpu time spent up to now is     1428.9 secs

     total energy              =   -2743.61510057 Ry
     Harris-Foulkes estimate   =   -2743.61510059 Ry
     estimated scf accuracy    <       0.00000387 Ry

     iteration # 91     ecut=    50.00 Ry     beta=0.70
     Davidson diagonalization with overlap

     total cpu time spent up to now is     1429.0 secs

     End of self-consistent calculation

          k = 0.0000 0.0000 0.0000 (  4801 PWs)   bands (ev):

   -28.2030 -28.0261 -28.0261 -28.0261  -6.9512  -6.9512  -6.9512  -6.0265
    -6.0265  -6.0265  -6.0265  -6.0265  -6.0265  -5.5940  -5.5940  -5.5940
     6.0677   8.6006   8.6006   8.6006  11.4881  11.4881  11.4881  11.5426
    12.1069  12.1069  12.1071  13.4910  13.4910  13.4910  13.4988  13.4988
    13.4988  13.4988  13.4988  13.4988  13.6214  13.6214  13.6214  13.7192
    13.7192  13.7192  13.7961  13.7961  13.7961  13.7962  13.7962  13.7962

          k = 0.0000 0.0000 0.2500 (  4817 PWs)   bands (ev):

   -28.1774 -28.0523 -28.0259 -28.0259  -6.8283  -6.8283  -6.7844  -6.1762
    -6.1762  -6.0389  -6.0389  -5.9654  -5.9654  -5.8329  -5.6597  -5.6597
     6.7129   8.9136   9.0184   9.0184  10.2360  10.9494  11.0718  11.0718
    12.6047  12.6048  12.9027  13.4880  13.4880  13.4887  13.4887  13.4976
    13.4976  13.5145  13.5145  13.5196  13.5814  13.6418  13.6418  13.6653
    13.6653  13.6801  13.7723  13.7723  13.8179  13.8179  13.8343  13.8344

          k = 0.0000 0.0000-0.5000 (  4828 PWs)   bands (ev):

   -28.1151 -28.1151 -28.0258 -28.0257  -6.5156  -6.5156  -6.5155  -6.5155
    -6.3435  -6.3435  -6.0513  -6.0513  -5.8149  -5.8149  -5.8149  -5.8149
     8.3354   8.3355   9.7946   9.7946  10.0399  10.0399  10.0399  10.0399
    13.3047  13.3049  13.3773  13.3773  13.4285  13.4286  13.4915  13.4915
    13.4916  13.4916  13.5667  13.5667  13.5668  13.5668  13.5948  13.5948
    13.7127  13.7127  13.7127  13.7127  13.8766  13.9024  13.9024  13.9024

          k = 0.0000 0.2500 0.2500 (  4801 PWs)   bands (ev):

   -28.1554 -28.0483 -28.0482 -28.0296  -6.7365  -6.7365  -6.7127  -6.3678
    -6.1039  -6.1039  -6.0852  -5.9466  -5.9466  -5.9364  -5.7389  -5.6285
     7.2283   9.2095   9.2542   9.2542  10.1546  10.1546  10.6147  10.7913
    13.0382  13.0768  13.0769  13.4658  13.4866  13.4916  13.4917  13.5079
    13.5079  13.5238  13.5403  13.5404  13.5535  13.5951  13.6150  13.6467
    13.6718  13.7206  13.7927  13.7928  13.8015  13.8015  13.8185  13.8769

          k = 0.0000 0.2500-0.5000 (  4810 PWs)   bands (ev):

   -28.1020 -28.1019 -28.0388 -28.0387  -6.5931  -6.5931  -6.4640  -6.4639
    -6.4196  -6.4195  -5.9248  -5.9247  -5.9118  -5.9118  -5.7528  -5.7527
     8.5573   8.5574   9.7185   9.7185   9.8833   9.8833  10.0509  10.0509
    13.3818  13.3818  13.4385  13.4386  13.4554  13.4555  13.4925  13.4926
    13.5354  13.5354  13.5366  13.5367  13.5455  13.5456  13.6124  13.6124
    13.7330  13.7330  13.7546  13.7546  13.8423  13.8423  13.8504  13.8504

          k = 0.0000-0.5000-0.5000 (  4812 PWs)   bands (ev):

   -28.0703 -28.0702 -28.0702 -28.0702  -6.6045  -6.6045  -6.6045  -6.6044
    -6.1791  -6.1790  -6.1790  -6.1790  -5.7545  -5.7545  -5.7544  -5.7544
     9.0967   9.0968   9.0968   9.0968  10.0177  10.0177  10.0177  10.0177
    13.4181  13.4182  13.4182  13.4183  13.5081  13.5082  13.5082  13.5083
    13.5322  13.5322  13.5322  13.5323  13.5910  13.5910  13.5910  13.5911
    13.7904  13.7904  13.7905  13.7905  13.8109  13.8110  13.8110  13.8110

          k = 0.2500 0.2500 0.2500 (  4794 PWs)   bands (ev):

   -28.1370 -28.0481 -28.0480 -28.0480  -6.7629  -6.7629  -6.7628  -6.3367
    -6.1381  -6.1380  -6.1380  -5.8920  -5.8920  -5.8920  -5.6743  -5.6743
     7.5222   9.0501   9.0501   9.0501  10.4757  10.4757  10.4757  10.5608
    13.2712  13.2712  13.2713  13.4836  13.4837  13.4837  13.5012  13.5012
    13.5012  13.5497  13.5539  13.5539  13.5712  13.5712  13.5713  13.7021
    13.7021  13.7234  13.8038  13.8038  13.8038  13.8249  13.8249  13.8249

          k = 0.2500 0.2500-0.5000 (  4806 PWs)   bands (ev):

   -28.0926 -28.0925 -28.0479 -28.0478  -6.7905  -6.7905  -6.6501  -6.6501
    -6.1511  -6.1510  -5.8574  -5.8573  -5.8098  -5.8098  -5.7839  -5.7838
     8.3036   8.3036   8.9318   8.9319  10.4040  10.4040  10.6892  10.6892
    13.4208  13.4209  13.4644  13.4645  13.4769  13.4770  13.5039  13.5039
    13.5296  13.5297  13.5355  13.5356  13.5903  13.5904  13.6623  13.6624
    13.7640  13.7640  13.7640  13.7641  13.8284  13.8285  13.8442  13.8442

          k = 0.2500-0.5000-0.5000 (  4796 PWs)   bands (ev):

   -28.0701 -28.0700 -28.0700 -28.0700  -6.8353  -6.8353  -6.8353  -6.8352
    -5.9210  -5.9210  -5.9210  -5.9209  -5.7535  -5.7535  -5.7535  -5.7534
     8.3282   8.3283   8.3283   8.3283  10.8980  10.8980  10.8980  10.8980
    13.4527  13.4527  13.4527  13.4528  13.4807  13.4807  13.4807  13.4808
    13.5616  13.5616  13.5616  13.5618  13.6632  13.6632  13.6632  13.6633
    13.8047  13.8047  13.8047  13.8048  13.8136  13.8137  13.8137  13.8138

          k =-0.5000-0.5000-0.5000 (  4776 PWs)   bands (ev):

   -28.0698 -28.0698 -28.0698 -28.0698  -6.9761  -6.9761  -6.9761  -6.9760
    -5.7526  -5.7526  -5.7526  -5.7525  -5.7525  -5.7525  -5.7525  -5.7525
     7.9028   7.9028   7.9028   7.9028  11.4257  11.4257  11.4257  11.4257
    13.4667  13.4667  13.4667  13.4667  13.4667  13.4667  13.4668  13.4668
    13.6047  13.6047  13.6047  13.6048  13.7275  13.7275  13.7275  13.7276
    13.8205  13.8205  13.8205  13.8206  13.8206  13.8206  13.8206  13.8206

     the Fermi energy is    13.6868 ev

!    total energy              =   -2743.61510057 Ry
     Harris-Foulkes estimate   =   -2743.61510060 Ry
     estimated scf accuracy    <       0.00000003 Ry

     The total energy is the sum of the following terms:

     one-electron contribution =    -351.19213540 Ry
     hartree contribution      =     237.37078412 Ry
     xc contribution           =     -96.92534324 Ry
     ewald contribution        =    -668.42744267 Ry
     one-center paw contrib.   =   -1864.39098356 Ry
     smearing contrib. (-TS)   =      -0.04997982 Ry

     convergence has been achieved in  91 iterations

     Forces acting on atoms (cartesian axes, Ry/au):

     atom    1 type  1   force =     0.00000000    0.00000000    0.00000000
     atom    2 type  1   force =     0.00000000    0.00000000    0.00000000
     atom    3 type  1   force =     0.00000000    0.00000000    0.00000000
     atom    4 type  1   force =     0.00000000    0.00000000    0.00000000
     atom    5 type  2   force =    -0.00000357   -0.00000357   -0.00000357
     atom    6 type  2   force =    -0.00000357    0.00000357    0.00000357
     atom    7 type  2   force =     0.00000357   -0.00000357    0.00000357
     atom    8 type  2   force =     0.00000357    0.00000357   -0.00000357
     atom    9 type  2   force =    -0.00000357    0.00000357   -0.00000357
     atom   10 type  2   force =    -0.00000357   -0.00000357    0.00000357
     atom   11 type  2   force =     0.00000357    0.00000357    0.00000357
     atom   12 type  2   force =     0.00000357   -0.00000357   -0.00000357

     Total force =     0.000017     Total SCF correction =     0.000024
     SCF correction compared to forces is large: reduce conv_thr to get better values
     ethr =  4.83E-09,  avg # of iterations =  1.0

     Forces acting on atoms (cartesian axes, Ry/au):

     atom    1 type  1   force =     0.00000000    0.00000000    0.00000000
     atom    2 type  1   force =     0.00000000    0.00000000    0.00000000
     atom    3 type  1   force =     0.00000000    0.00000000    0.00000000
     atom    4 type  1   force =     0.00000000    0.00000000    0.00000000
     atom    5 type  2   force =    -0.00000357   -0.00000357   -0.00000357
     atom    6 type  2   force =    -0.00000357    0.00000357    0.00000357
     atom    7 type  2   force =     0.00000357   -0.00000357    0.00000357
     atom    8 type  2   force =     0.00000357    0.00000357   -0.00000357
     atom    9 type  2   force =    -0.00000357    0.00000357   -0.00000357
     atom   10 type  2   force =    -0.00000357   -0.00000357    0.00000357
     atom   11 type  2   force =     0.00000357    0.00000357    0.00000357
     atom   12 type  2   force =     0.00000357   -0.00000357   -0.00000357

     Total force =     0.000017     Total SCF correction =     0.000024
     SCF correction compared to forces is large: reduce conv_thr to get better values

     total cpu time spent up to now is     1430.1 secs

     total energy              =   -2743.61510057 Ry
     Harris-Foulkes estimate   =   -2743.61510059 Ry
     estimated scf accuracy    <       0.00000387 Ry

     iteration # 91     ecut=    50.00 Ry     beta=0.70
     Davidson diagonalization with overlap

     Forces acting on atoms (cartesian axes, Ry/au):

     atom    1 type  1   force =     0.00000000    0.00000000    0.00000000
     atom    2 type  1   force =     0.00000000    0.00000000    0.00000000
     atom    3 type  1   force =     0.00000000    0.00000000    0.00000000
     atom    4 type  1   force =     0.00000000    0.00000000    0.00000000
     atom    5 type  2   force =    -0.00000357   -0.00000357   -0.00000357
     atom    6 type  2   force =    -0.00000357    0.00000357    0.00000357
     atom    7 type  2   force =     0.00000357   -0.00000357    0.00000357
     atom    8 type  2   force =     0.00000357    0.00000357   -0.00000357
     atom    9 type  2   force =    -0.00000357    0.00000357   -0.00000357
     atom   10 type  2   force =    -0.00000357   -0.00000357    0.00000357
     atom   11 type  2   force =     0.00000357    0.00000357    0.00000357
     atom   12 type  2   force =     0.00000357   -0.00000357   -0.00000357

     Total force =     0.000017     Total SCF correction =     0.000024
     SCF correction compared to forces is large: reduce conv_thr to get better values

     Forces acting on atoms (cartesian axes, Ry/au):

     atom    1 type  1   force =     0.00000000    0.00000000    0.00000000
     atom    2 type  1   force =     0.00000000    0.00000000    0.00000000
     atom    3 type  1   force =     0.00000000    0.00000000    0.00000000
     atom    4 type  1   force =     0.00000000    0.00000000    0.00000000
     atom    5 type  2   force =    -0.00000357   -0.00000357   -0.00000357
     atom    6 type  2   force =    -0.00000357    0.00000357    0.00000357
     atom    7 type  2   force =     0.00000357   -0.00000357    0.00000357
     atom    8 type  2   force =     0.00000357    0.00000357   -0.00000357
     atom    9 type  2   force =    -0.00000357    0.00000357   -0.00000357
     atom   10 type  2   force =    -0.00000357   -0.00000357    0.00000357
     atom   11 type  2   force =     0.00000357    0.00000357    0.00000357
     atom   12 type  2   force =     0.00000357   -0.00000357   -0.00000357

     Total force =     0.000017     Total SCF correction =     0.000024
     SCF correction compared to forces is large: reduce conv_thr to get better values
 
     init_run     :      7.25s CPU     14.99s WALL (       1 calls)
     electrons    :    686.91s CPU   1408.98s WALL (       1 calls)
     forces       :      0.93s CPU      2.04s WALL (       1 calls)

     Called by init_run:
     wfcinit      :      4.45s CPU      9.01s WALL (       1 calls)
     potinit      :      1.78s CPU      3.66s WALL (       1 calls)

     Called by electrons:
     c_bands      :    408.11s CPU    818.67s WALL (      91 calls)
     sum_band     :     94.34s CPU    204.58s WALL (      91 calls)
     v_of_rho     :      3.99s CPU      7.84s WALL (      92 calls)
 
     init_run     :      7.25s CPU     15.04s WALL (       1 calls)
     electrons    :    687.05s CPU   1409.01s WALL (       1 calls)
     forces       :      0.95s CPU      2.09s WALL (       1 calls)

     Called by init_run:
     wfcinit      :      4.45s CPU      8.98s WALL (       1 calls)
     potinit      :      1.80s CPU      3.74s WALL (       1 calls)

     Called by electrons:
     c_bands      :    407.88s CPU    818.40s WALL (      91 calls)
     sum_band     :     93.80s CPU    203.38s WALL (      91 calls)
     v_of_rho     :      4.05s CPU      8.15s WALL (      92 calls)
     newd         :     20.24s CPU     56.47s WALL (      92 calls)
     PAW_pot      :    160.71s CPU    321.60s WALL (      92 calls)
     mix_rho      :      1.46s CPU      3.03s WALL (      91 calls)
     newd         :     20.43s CPU     57.20s WALL (      92 calls)
     PAW_pot      :    159.66s CPU    319.59s WALL (      92 calls)
     mix_rho      :      1.45s CPU      2.99s WALL (      91 calls)

     Called by c_bands:
     init_us_2    :      7.21s CPU     13.75s WALL (    1840 calls)

     Called by c_bands:
     init_us_2    :      7.23s CPU     13.52s WALL (    1840 calls)
     cegterg      :    334.63s CPU    671.22s WALL (     910 calls)

     Called by sum_band:
     sum_band:bec :      0.10s CPU      0.24s WALL (     910 calls)
     cegterg      :    334.76s CPU    671.57s WALL (     910 calls)

     Called by sum_band:
     sum_band:bec :      0.10s CPU      0.24s WALL (     910 calls)
     addusdens    :     26.15s CPU     68.40s WALL (      91 calls)

     Called by *egterg:
     h_psi        :    249.37s CPU    500.92s WALL (    2894 calls)
     addusdens    :     25.95s CPU     67.84s WALL (      91 calls)

     Called by *egterg:
     h_psi        :    249.10s CPU    500.39s WALL (    2894 calls)
     s_psi        :     22.43s CPU     44.29s WALL (    2894 calls)
     g_psi        :      1.60s CPU      3.35s WALL (    1974 calls)
     s_psi        :     22.44s CPU     45.24s WALL (    2894 calls)
     g_psi        :      1.60s CPU      3.17s WALL (    1974 calls)
     cdiaghg      :     10.02s CPU     19.80s WALL (    2884 calls)

     Called by h_psi:
     h_psi:pot    :    246.38s CPU    494.73s WALL (    2894 calls)
     h_psi:calbec :     19.63s CPU     39.72s WALL (    2894 calls)
     cdiaghg      :     10.04s CPU     20.11s WALL (    2884 calls)

     Called by h_psi:
     h_psi:pot    :    246.08s CPU    494.11s WALL (    2894 calls)
     h_psi:calbec :     19.60s CPU     40.08s WALL (    2894 calls)
     vloc_psi     :    204.08s CPU    409.57s WALL (    2894 calls)
     vloc_psi     :    204.32s CPU    409.97s WALL (    2894 calls)
     add_vuspsi   :     22.40s CPU     45.02s WALL (    2894 calls)

     General routines
     calbec       :     28.23s CPU     57.17s WALL (    3844 calls)
     fft          :      1.82s CPU      3.47s WALL (    1206 calls)
     fftw         :    214.53s CPU    431.87s WALL (  241656 calls)
     add_vuspsi   :     22.38s CPU     44.40s WALL (    2894 calls)

     General routines
     calbec       :     28.13s CPU     57.53s WALL (    3844 calls)
     fft          :      1.85s CPU      3.75s WALL (    1206 calls)
     fftw         :    214.13s CPU    433.13s WALL (  241656 calls)
     davcio       :      0.00s CPU      0.08s WALL (      10 calls)
 
     Parallel routines
     davcio       :      0.00s CPU      0.23s WALL (      10 calls)
 
     Parallel routines
     fft_scatter  :     34.02s CPU     71.27s WALL (  242862 calls)
     fft_scatter  :     33.71s CPU     70.90s WALL (  242862 calls)

     BFGS Geometry Optimization

     bfgs converged in   1 scf cycles and   0 bfgs steps
     (criteria: energy <  1.0E-04 Ry, force <  1.0E-03 Ry/Bohr)

     End of BFGS Geometry Optimization

     Final energy   =   -2743.6151005679 Ry
Begin final coordinates

ATOMIC_POSITIONS (crystal)
Gd       0.000000000   0.000000000   0.000000000
Gd       0.000000000   0.500000000   0.500000000
Gd       0.500000000   0.000000000   0.500000000
Gd       0.500000000   0.500000000   0.000000000
H        0.250000000   0.250000000   0.250000000
H        0.250000000   0.750000000   0.750000000
H        0.750000000   0.250000000   0.750000000
H        0.750000000   0.750000000   0.250000000
H        0.250000000   0.750000000   0.250000000
H        0.250000000   0.250000000   0.750000000
H        0.750000000   0.750000000   0.750000000
H        0.750000000   0.250000000   0.250000000
End final coordinates



     Writing output data file 2245.save

     BFGS Geometry Optimization

     bfgs converged in   1 scf cycles and   0 bfgs steps
     (criteria: energy <  1.0E-04 Ry, force <  1.0E-03 Ry/Bohr)

     End of BFGS Geometry Optimization

     Final energy   =   -2743.6151005679 Ry
Begin final coordinates

ATOMIC_POSITIONS (crystal)
Gd       0.000000000   0.000000000   0.000000000
Gd       0.000000000   0.500000000   0.500000000
Gd       0.500000000   0.000000000   0.500000000
Gd       0.500000000   0.500000000   0.000000000
H        0.250000000   0.250000000   0.250000000
H        0.250000000   0.750000000   0.750000000
H        0.750000000   0.250000000   0.750000000
H        0.750000000   0.750000000   0.250000000
H        0.250000000   0.750000000   0.250000000
H        0.250000000   0.250000000   0.750000000
H        0.750000000   0.750000000   0.750000000
H        0.750000000   0.250000000   0.250000000
End final coordinates



     Writing output data file 2245.save

     BFGS Geometry Optimization

     bfgs converged in   1 scf cycles and   0 bfgs steps
     (criteria: energy <  1.0E-04 Ry, force <  1.0E-03 Ry/Bohr)

     End of BFGS Geometry Optimization

     Final energy   =   -2743.6151005679 Ry
Begin final coordinates

ATOMIC_POSITIONS (crystal)
Gd       0.000000000   0.000000000   0.000000000
Gd       0.000000000   0.500000000   0.500000000
Gd       0.500000000   0.000000000   0.500000000
Gd       0.500000000   0.500000000   0.000000000
H        0.250000000   0.250000000   0.250000000
H        0.250000000   0.750000000   0.750000000
H        0.750000000   0.250000000   0.750000000
H        0.750000000   0.750000000   0.250000000
H        0.250000000   0.750000000   0.250000000
H        0.250000000   0.250000000   0.750000000
H        0.750000000   0.750000000   0.750000000
H        0.750000000   0.250000000   0.250000000
End final coordinates



     Writing output data file 2245.save

     BFGS Geometry Optimization

     bfgs converged in   1 scf cycles and   0 bfgs steps
     (criteria: energy <  1.0E-04 Ry, force <  1.0E-03 Ry/Bohr)

     End of BFGS Geometry Optimization

     Final energy   =   -2743.6151005679 Ry
Begin final coordinates

ATOMIC_POSITIONS (crystal)
Gd       0.000000000   0.000000000   0.000000000
Gd       0.000000000   0.500000000   0.500000000
Gd       0.500000000   0.000000000   0.500000000
Gd       0.500000000   0.500000000   0.000000000
H        0.250000000   0.250000000   0.250000000
H        0.250000000   0.750000000   0.750000000
H        0.750000000   0.250000000   0.750000000
H        0.750000000   0.750000000   0.250000000
H        0.250000000   0.750000000   0.250000000
H        0.250000000   0.250000000   0.750000000
H        0.750000000   0.750000000   0.750000000
H        0.750000000   0.250000000   0.250000000
End final coordinates



     Writing output data file 2245.save
 
     PWSCF        : 11m35.74s CPU    23m50.98s WALL

 
   This run was terminated on:  12:49:42   3Jul2022            

=------------------------------------------------------------------------------=
   JOB DONE.
=------------------------------------------------------------------------------=
 
     PWSCF        : 11m35.91s CPU    23m50.98s WALL

 
   This run was terminated on:  12:49:42   3Jul2022            

=------------------------------------------------------------------------------=
   JOB DONE.
=------------------------------------------------------------------------------=
