
     Program PWSCF v.6.1 (svn rev. 13369) starts on  3Jul2022 at 12:25:51 

     This program is part of the open-source Quantum ESPRESSO suite
     for quantum simulation of materials; please cite
         "P. Giannozzi et al., J. Phys.:Condens. Matter 21 395502 (2009);
          URL http://www.quantum-espresso.org", 
     in publications or presentations arising from this work. More details at
     http://www.quantum-espresso.org/quote

     Parallel version (MPI), running on     1 processors

     Program PWSCF v.6.1 (svn rev. 13369) starts on  3Jul2022 at 12:25:51 

     This program is part of the open-source Quantum ESPRESSO suite
     for quantum simulation of materials; please cite
         "P. Giannozzi et al., J. Phys.:Condens. Matter 21 395502 (2009);
          URL http://www.quantum-espresso.org", 
     in publications or presentations arising from this work. More details at
     http://www.quantum-espresso.org/quote

     Parallel version (MPI), running on     1 processors

     Program PWSCF v.6.1 (svn rev. 13369) starts on  3Jul2022 at 12:25:51 

     This program is part of the open-source Quantum ESPRESSO suite
     for quantum simulation of materials; please cite
         "P. Giannozzi et al., J. Phys.:Condens. Matter 21 395502 (2009);
          URL http://www.quantum-espresso.org", 
     in publications or presentations arising from this work. More details at
     http://www.quantum-espresso.org/quote

     Parallel version (MPI), running on     1 processors

     Program PWSCF v.6.1 (svn rev. 13369) starts on  3Jul2022 at 12:25:51 

     This program is part of the open-source Quantum ESPRESSO suite
     for quantum simulation of materials; please cite
         "P. Giannozzi et al., J. Phys.:Condens. Matter 21 395502 (2009);
          URL http://www.quantum-espresso.org", 
     in publications or presentations arising from this work. More details at
     http://www.quantum-espresso.org/quote

     Parallel version (MPI), running on     1 processors

     Program PWSCF v.6.1 (svn rev. 13369) starts on  3Jul2022 at 12:25:51 

     This program is part of the open-source Quantum ESPRESSO suite
     for quantum simulation of materials; please cite
         "P. Giannozzi et al., J. Phys.:Condens. Matter 21 395502 (2009);
          URL http://www.quantum-espresso.org", 
     in publications or presentations arising from this work. More details at
     http://www.quantum-espresso.org/quote

     Parallel version (MPI), running on     1 processors

     Program PWSCF v.6.1 (svn rev. 13369) starts on  3Jul2022 at 12:25:51 

     This program is part of the open-source Quantum ESPRESSO suite
     for quantum simulation of materials; please cite
         "P. Giannozzi et al., J. Phys.:Condens. Matter 21 395502 (2009);
          URL http://www.quantum-espresso.org", 
     in publications or presentations arising from this work. More details at
     http://www.quantum-espresso.org/quote

     Parallel version (MPI), running on     1 processors

     Program PWSCF v.6.1 (svn rev. 13369) starts on  3Jul2022 at 12:25:51 

     This program is part of the open-source Quantum ESPRESSO suite
     for quantum simulation of materials; please cite
         "P. Giannozzi et al., J. Phys.:Condens. Matter 21 395502 (2009);
          URL http://www.quantum-espresso.org", 
     in publications or presentations arising from this work. More details at
     http://www.quantum-espresso.org/quote

     Parallel version (MPI), running on     1 processors

     Program PWSCF v.6.1 (svn rev. 13369) starts on  3Jul2022 at 12:25:51 

     This program is part of the open-source Quantum ESPRESSO suite
     for quantum simulation of materials; please cite
         "P. Giannozzi et al., J. Phys.:Condens. Matter 21 395502 (2009);
          URL http://www.quantum-espresso.org", 
     in publications or presentations arising from this work. More details at
     http://www.quantum-espresso.org/quote

     Parallel version (MPI), running on     1 processors

     Program PWSCF v.6.1 (svn rev. 13369) starts on  3Jul2022 at 12:25:51 

     This program is part of the open-source Quantum ESPRESSO suite
     for quantum simulation of materials; please cite
         "P. Giannozzi et al., J. Phys.:Condens. Matter 21 395502 (2009);
          URL http://www.quantum-espresso.org", 
     in publications or presentations arising from this work. More details at
     http://www.quantum-espresso.org/quote

     Parallel version (MPI), running on     1 processors

     Program PWSCF v.6.1 (svn rev. 13369) starts on  3Jul2022 at 12:25:51 

     This program is part of the open-source Quantum ESPRESSO suite
     for quantum simulation of materials; please cite
         "P. Giannozzi et al., J. Phys.:Condens. Matter 21 395502 (2009);
          URL http://www.quantum-espresso.org", 
     in publications or presentations arising from this work. More details at
     http://www.quantum-espresso.org/quote

     Parallel version (MPI), running on     1 processors

     Program PWSCF v.6.1 (svn rev. 13369) starts on  3Jul2022 at 12:25:51 

     This program is part of the open-source Quantum ESPRESSO suite
     for quantum simulation of materials; please cite
         "P. Giannozzi et al., J. Phys.:Condens. Matter 21 395502 (2009);
          URL http://www.quantum-espresso.org", 
     in publications or presentations arising from this work. More details at
     http://www.quantum-espresso.org/quote

     Parallel version (MPI), running on     1 processors

     Program PWSCF v.6.1 (svn rev. 13369) starts on  3Jul2022 at 12:25:51 

     This program is part of the open-source Quantum ESPRESSO suite
     for quantum simulation of materials; please cite
         "P. Giannozzi et al., J. Phys.:Condens. Matter 21 395502 (2009);
          URL http://www.quantum-espresso.org", 
     in publications or presentations arising from this work. More details at
     http://www.quantum-espresso.org/quote

     Parallel version (MPI), running on     1 processors

     Program PWSCF v.6.1 (svn rev. 13369) starts on  3Jul2022 at 12:25:51 

     This program is part of the open-source Quantum ESPRESSO suite
     for quantum simulation of materials; please cite
         "P. Giannozzi et al., J. Phys.:Condens. Matter 21 395502 (2009);
          URL http://www.quantum-espresso.org", 
     in publications or presentations arising from this work. More details at
     http://www.quantum-espresso.org/quote

     Parallel version (MPI), running on     1 processors

     Program PWSCF v.6.1 (svn rev. 13369) starts on  3Jul2022 at 12:25:51 

     This program is part of the open-source Quantum ESPRESSO suite
     for quantum simulation of materials; please cite
         "P. Giannozzi et al., J. Phys.:Condens. Matter 21 395502 (2009);
          URL http://www.quantum-espresso.org", 
     in publications or presentations arising from this work. More details at
     http://www.quantum-espresso.org/quote

     Parallel version (MPI), running on     1 processors

     Program PWSCF v.6.1 (svn rev. 13369) starts on  3Jul2022 at 12:25:51 

     This program is part of the open-source Quantum ESPRESSO suite
     for quantum simulation of materials; please cite
         "P. Giannozzi et al., J. Phys.:Condens. Matter 21 395502 (2009);
          URL http://www.quantum-espresso.org", 
     in publications or presentations arising from this work. More details at
     http://www.quantum-espresso.org/quote

     Parallel version (MPI), running on     1 processors

     Program PWSCF v.6.1 (svn rev. 13369) starts on  3Jul2022 at 12:25:51 

     This program is part of the open-source Quantum ESPRESSO suite
     for quantum simulation of materials; please cite
         "P. Giannozzi et al., J. Phys.:Condens. Matter 21 395502 (2009);
          URL http://www.quantum-espresso.org", 
     in publications or presentations arising from this work. More details at
     http://www.quantum-espresso.org/quote

     Parallel version (MPI), running on     1 processors
     Reading input from ./GdH2_1.2.in
     Reading input from ./GdH2_1.2.in
     Reading input from ./GdH2_1.2.in
     Reading input from ./GdH2_1.2.in
     Reading input from ./GdH2_1.2.in
     Reading input from ./GdH2_1.2.in
     Reading input from ./GdH2_1.2.in
     Reading input from ./GdH2_1.2.in
     Reading input from ./GdH2_1.2.in
     Reading input from ./GdH2_1.2.in
     Reading input from ./GdH2_1.2.in
     Reading input from ./GdH2_1.2.in
     Reading input from ./GdH2_1.2.in
     Reading input from ./GdH2_1.2.in
     Reading input from ./GdH2_1.2.in
     Reading input from ./GdH2_1.2.in
Warning: card &CELL ignored
Warning: card / ignored
Warning: card &CELL ignored
Warning: card / ignored
Warning: card &CELL ignored
Warning: card / ignored
Warning: card &CELL ignored
Warning: card / ignored
Warning: card &CELL ignored
Warning: card / ignored
Warning: card &CELL ignored
Warning: card / ignored
Warning: card &CELL ignored
Warning: card / ignored
Warning: card &CELL ignored
Warning: card / ignored
Warning: card &CELL ignored
Warning: card / ignored
Warning: card &CELL ignored
Warning: card / ignored
Warning: card &CELL ignored
Warning: card / ignored
Warning: card &CELL ignored
Warning: card / ignored
Warning: card &CELL ignored
Warning: card / ignored
Warning: card &CELL ignored
Warning: card / ignored
Warning: card &CELL ignored
Warning: card / ignored
Warning: card &CELL ignored
Warning: card / ignored

     Current dimensions of program PWSCF are:
     Max number of different atomic species (ntypx) = 10
     Max number of k-points (npk) =  40000
     Max angular momentum in pseudopotentials (lmaxx) =  3

     Current dimensions of program PWSCF are:
     Max number of different atomic species (ntypx) = 10
     Max number of k-points (npk) =  40000
     Max angular momentum in pseudopotentials (lmaxx) =  3

     Current dimensions of program PWSCF are:
     Max number of different atomic species (ntypx) = 10
     Max number of k-points (npk) =  40000
     Max angular momentum in pseudopotentials (lmaxx) =  3

     Current dimensions of program PWSCF are:
     Max number of different atomic species (ntypx) = 10
     Max number of k-points (npk) =  40000
     Max angular momentum in pseudopotentials (lmaxx) =  3

     Current dimensions of program PWSCF are:
     Max number of different atomic species (ntypx) = 10
     Max number of k-points (npk) =  40000
     Max angular momentum in pseudopotentials (lmaxx) =  3

     Current dimensions of program PWSCF are:
     Max number of different atomic species (ntypx) = 10
     Max number of k-points (npk) =  40000
     Max angular momentum in pseudopotentials (lmaxx) =  3

     Current dimensions of program PWSCF are:
     Max number of different atomic species (ntypx) = 10
     Max number of k-points (npk) =  40000
     Max angular momentum in pseudopotentials (lmaxx) =  3

     Current dimensions of program PWSCF are:
     Max number of different atomic species (ntypx) = 10
     Max number of k-points (npk) =  40000

     Current dimensions of program PWSCF are:
     Max number of different atomic species (ntypx) = 10
     Max number of k-points (npk) =  40000
     Max angular momentum in pseudopotentials (lmaxx) =  3

     Current dimensions of program PWSCF are:
     Max number of different atomic species (ntypx) = 10
     Max number of k-points (npk) =  40000
     Max angular momentum in pseudopotentials (lmaxx) =  3
     Max angular momentum in pseudopotentials (lmaxx) =  3

     Current dimensions of program PWSCF are:
     Max number of different atomic species (ntypx) = 10
     Max number of k-points (npk) =  40000
     Max angular momentum in pseudopotentials (lmaxx) =  3

     Current dimensions of program PWSCF are:
     Max number of different atomic species (ntypx) = 10
     Max number of k-points (npk) =  40000
     Max angular momentum in pseudopotentials (lmaxx) =  3

     Current dimensions of program PWSCF are:
     Max number of different atomic species (ntypx) = 10
     Max number of k-points (npk) =  40000
     Max angular momentum in pseudopotentials (lmaxx) =  3

     Current dimensions of program PWSCF are:
     Max number of different atomic species (ntypx) = 10
     Max number of k-points (npk) =  40000
     Max angular momentum in pseudopotentials (lmaxx) =  3

     Current dimensions of program PWSCF are:
     Max number of different atomic species (ntypx) = 10
     Max number of k-points (npk) =  40000
     Max angular momentum in pseudopotentials (lmaxx) =  3

     Current dimensions of program PWSCF are:
     Max number of different atomic species (ntypx) = 10
     Max number of k-points (npk) =  40000
     Max angular momentum in pseudopotentials (lmaxx) =  3
               file Gd.GGA-PBE-paw-v1.0.UPF: wavefunction(s)  Xn Xn Xn Xn Xn Xn renormalized
               file Gd.GGA-PBE-paw-v1.0.UPF: wavefunction(s)  Xn Xn Xn Xn Xn Xn renormalized
               file Gd.GGA-PBE-paw-v1.0.UPF: wavefunction(s)  Xn Xn Xn Xn Xn Xn renormalized
               file Gd.GGA-PBE-paw-v1.0.UPF: wavefunction(s)  Xn Xn Xn Xn Xn Xn renormalized
               file Gd.GGA-PBE-paw-v1.0.UPF: wavefunction(s)  Xn Xn Xn Xn Xn Xn renormalized
               file Gd.GGA-PBE-paw-v1.0.UPF: wavefunction(s)  Xn Xn Xn Xn Xn Xn renormalized
               file Gd.GGA-PBE-paw-v1.0.UPF: wavefunction(s)  Xn Xn Xn Xn Xn Xn renormalized
               file Gd.GGA-PBE-paw-v1.0.UPF: wavefunction(s)  Xn Xn Xn Xn Xn Xn renormalized
               file Gd.GGA-PBE-paw-v1.0.UPF: wavefunction(s)  Xn Xn Xn Xn Xn Xn renormalized
               file Gd.GGA-PBE-paw-v1.0.UPF: wavefunction(s)  Xn Xn Xn Xn Xn Xn renormalized
               file Gd.GGA-PBE-paw-v1.0.UPF: wavefunction(s)  Xn Xn Xn Xn Xn Xn renormalized
               file Gd.GGA-PBE-paw-v1.0.UPF: wavefunction(s)  Xn Xn Xn Xn Xn Xn renormalized

     Subspace diagonalization in iterative solution of the eigenvalue problem:
     a serial algorithm will be used


     Subspace diagonalization in iterative solution of the eigenvalue problem:
     a serial algorithm will be used


     Subspace diagonalization in iterative solution of the eigenvalue problem:
     a serial algorithm will be used


     Subspace diagonalization in iterative solution of the eigenvalue problem:
     a serial algorithm will be used


     Subspace diagonalization in iterative solution of the eigenvalue problem:
     a serial algorithm will be used


     Subspace diagonalization in iterative solution of the eigenvalue problem:
     a serial algorithm will be used


     Subspace diagonalization in iterative solution of the eigenvalue problem:
     a serial algorithm will be used


     Subspace diagonalization in iterative solution of the eigenvalue problem:
     a serial algorithm will be used


     Subspace diagonalization in iterative solution of the eigenvalue problem:
     a serial algorithm will be used

               file Gd.GGA-PBE-paw-v1.0.UPF: wavefunction(s)  Xn Xn Xn Xn Xn Xn renormalized
     Found symmetry operation: I + (  0.0000 -0.5000 -0.5000)
     This is a supercell, fractional translations are disabled
     Found symmetry operation: I + (  0.0000 -0.5000 -0.5000)
     This is a supercell, fractional translations are disabled
     Found symmetry operation: I + (  0.0000 -0.5000 -0.5000)
     This is a supercell, fractional translations are disabled
     Found symmetry operation: I + (  0.0000 -0.5000 -0.5000)
     This is a supercell, fractional translations are disabled
     Found symmetry operation: I + (  0.0000 -0.5000 -0.5000)
     This is a supercell, fractional translations are disabled
     Found symmetry operation: I + (  0.0000 -0.5000 -0.5000)
     This is a supercell, fractional translations are disabled
     Found symmetry operation: I + (  0.0000 -0.5000 -0.5000)
     This is a supercell, fractional translations are disabled
     Found symmetry operation: I + (  0.0000 -0.5000 -0.5000)
     This is a supercell, fractional translations are disabled
     Found symmetry operation: I + (  0.0000 -0.5000 -0.5000)
     This is a supercell, fractional translations are disabled
               file Gd.GGA-PBE-paw-v1.0.UPF: wavefunction(s)  Xn Xn Xn Xn Xn Xn renormalized
 
     G-vector sticks info
     --------------------
     sticks:   dense  smooth     PW     G-vecs:    dense   smooth      PW
     Sum        1789    1789    517                57747    57747    8925
 
 
     G-vector sticks info
     --------------------
     sticks:   dense  smooth     PW     G-vecs:    dense   smooth      PW
     Sum        1789    1789    517                57747    57747    8925
 


     bravais-lattice index     =            0
 
     G-vector sticks info
     --------------------
     sticks:   dense  smooth     PW     G-vecs:    dense   smooth      PW
     Sum        1789    1789    517                57747    57747    8925
 


     bravais-lattice index     =            0
     lattice parameter (alat)  =      10.6492  a.u.
     unit-cell volume          =    1207.6685 (a.u.)^3
 
     G-vector sticks info
     --------------------
     sticks:   dense  smooth     PW     G-vecs:    dense   smooth      PW
     Sum        1789    1789    517                57747    57747    8925
 


     bravais-lattice index     =            0
     lattice parameter (alat)  =      10.6492  a.u.
     unit-cell volume          =    1207.6685 (a.u.)^3
     number of atoms/cell      =           12
     number of atomic types    =            2
     number of electrons       =        80.00
     number of Kohn-Sham states=           48
     kinetic-energy cutoff     =      50.0000  Ry
     charge density cutoff     =     200.0000  Ry
     convergence threshold     =      1.0E-06
     mixing beta               =       0.7000
     number of iterations used =            8  plain     mixing
     Exchange-correlation      = PBE ( 1  4  3  4 0 0)
     nstep                     =          150


     celldm(1)=  10.649174  celldm(2)=   0.000000  celldm(3)=   0.000000
     celldm(4)=   0.000000  celldm(5)=   0.000000  celldm(6)=   0.000000

     crystal axes: (cart. coord. in units of alat)
               a(1) = (   1.000000   0.000000   0.000000 )  
               a(2) = (   0.000000   1.000000   0.000000 )  
 
     G-vector sticks info
     --------------------
     sticks:   dense  smooth     PW     G-vecs:    dense   smooth      PW
     Sum        1789    1789    517                57747    57747    8925
 


     bravais-lattice index     =            0
     lattice parameter (alat)  =      10.6492  a.u.
     unit-cell volume          =    1207.6685 (a.u.)^3
     number of atoms/cell      =           12
     number of atomic types    =            2
     number of electrons       =        80.00
     number of Kohn-Sham states=           48
     kinetic-energy cutoff     =      50.0000  Ry
     charge density cutoff     =     200.0000  Ry
     convergence threshold     =      1.0E-06
     mixing beta               =       0.7000
     number of iterations used =            8  plain     mixing
     Exchange-correlation      = PBE ( 1  4  3  4 0 0)
     nstep                     =          150


     celldm(1)=  10.649174  celldm(2)=   0.000000  celldm(3)=   0.000000
     celldm(4)=   0.000000  celldm(5)=   0.000000  celldm(6)=   0.000000

     crystal axes: (cart. coord. in units of alat)
               a(1) = (   1.000000   0.000000   0.000000 )  
               a(2) = (   0.000000   1.000000   0.000000 )  
               a(3) = (   0.000000   0.000000   1.000000 )  

     reciprocal axes: (cart. coord. in units 2 pi/alat)
               b(1) = (  1.000000  0.000000  0.000000 )  
               b(2) = (  0.000000  1.000000  0.000000 )  
               b(3) = (  0.000000  0.000000  1.000000 )  


     PseudoPot. # 1 for Gd read from file:
 
     G-vector sticks info
     --------------------
     sticks:   dense  smooth     PW     G-vecs:    dense   smooth      PW
     Sum        1789    1789    517                57747    57747    8925
 


     bravais-lattice index     =            0
     lattice parameter (alat)  =      10.6492  a.u.
     unit-cell volume          =    1207.6685 (a.u.)^3
     number of atoms/cell      =           12
     number of atomic types    =            2
     number of electrons       =        80.00
     number of Kohn-Sham states=           48
     kinetic-energy cutoff     =      50.0000  Ry
     charge density cutoff     =     200.0000  Ry
     convergence threshold     =      1.0E-06
     mixing beta               =       0.7000
     number of iterations used =            8  plain     mixing
     Exchange-correlation      = PBE ( 1  4  3  4 0 0)
     nstep                     =          150


     celldm(1)=  10.649174  celldm(2)=   0.000000  celldm(3)=   0.000000
     celldm(4)=   0.000000  celldm(5)=   0.000000  celldm(6)=   0.000000

     crystal axes: (cart. coord. in units of alat)
               a(1) = (   1.000000   0.000000   0.000000 )  
               a(2) = (   0.000000   1.000000   0.000000 )  
               a(3) = (   0.000000   0.000000   1.000000 )  

     reciprocal axes: (cart. coord. in units 2 pi/alat)
               b(1) = (  1.000000  0.000000  0.000000 )  
               b(2) = (  0.000000  1.000000  0.000000 )  
               b(3) = (  0.000000  0.000000  1.000000 )  


     PseudoPot. # 1 for Gd read from file:
     /home/shaharpit/AcHProject/meam_fit/dft/qe_potentials/Gd.GGA-PBE-paw-v1.0.UPF
     MD5 check sum: 3e8e0d208da550914ae52eaf991d13de
 
     G-vector sticks info
     --------------------
     sticks:   dense  smooth     PW     G-vecs:    dense   smooth      PW
     Sum        1789    1789    517                57747    57747    8925
 


     bravais-lattice index     =            0
     lattice parameter (alat)  =      10.6492  a.u.
     unit-cell volume          =    1207.6685 (a.u.)^3
     number of atoms/cell      =           12
     number of atomic types    =            2
     number of electrons       =        80.00
     number of Kohn-Sham states=           48
     kinetic-energy cutoff     =      50.0000  Ry
     charge density cutoff     =     200.0000  Ry
     convergence threshold     =      1.0E-06
     mixing beta               =       0.7000
     number of iterations used =            8  plain     mixing
     Exchange-correlation      = PBE ( 1  4  3  4 0 0)
     nstep                     =          150


     celldm(1)=  10.649174  celldm(2)=   0.000000  celldm(3)=   0.000000
     celldm(4)=   0.000000  celldm(5)=   0.000000  celldm(6)=   0.000000

     crystal axes: (cart. coord. in units of alat)
               a(1) = (   1.000000   0.000000   0.000000 )  
               a(2) = (   0.000000   1.000000   0.000000 )  
               a(3) = (   0.000000   0.000000   1.000000 )  

     reciprocal axes: (cart. coord. in units 2 pi/alat)
               b(1) = (  1.000000  0.000000  0.000000 )  
               b(2) = (  0.000000  1.000000  0.000000 )  
               b(3) = (  0.000000  0.000000  1.000000 )  


     PseudoPot. # 1 for Gd read from file:
     /home/shaharpit/AcHProject/meam_fit/dft/qe_potentials/Gd.GGA-PBE-paw-v1.0.UPF
     MD5 check sum: 3e8e0d208da550914ae52eaf991d13de
     Pseudo is Projector augmented-wave + core cor, Zval = 18.0
     Generated using ATOMPAW code
     Shape of augmentation charge: BESSEL
     Using radial grid of 1110 points,  8 beta functions with: 
                l(1) =   0
                l(2) =   0
                l(3) =   1


     bravais-lattice index     =            0
     lattice parameter (alat)  =      10.6492  a.u.
     unit-cell volume          =    1207.6685 (a.u.)^3
     number of atoms/cell      =           12
     number of atomic types    =            2
     number of electrons       =        80.00
     number of Kohn-Sham states=           48
     kinetic-energy cutoff     =      50.0000  Ry
     charge density cutoff     =     200.0000  Ry
     convergence threshold     =      1.0E-06
     mixing beta               =       0.7000
     number of iterations used =            8  plain     mixing
     Exchange-correlation      = PBE ( 1  4  3  4 0 0)
     nstep                     =          150


     celldm(1)=  10.649174  celldm(2)=   0.000000  celldm(3)=   0.000000
     celldm(4)=   0.000000  celldm(5)=   0.000000  celldm(6)=   0.000000

     crystal axes: (cart. coord. in units of alat)
               a(1) = (   1.000000   0.000000   0.000000 )  
               a(2) = (   0.000000   1.000000   0.000000 )  
               a(3) = (   0.000000   0.000000   1.000000 )  

     reciprocal axes: (cart. coord. in units 2 pi/alat)
               b(1) = (  1.000000  0.000000  0.000000 )  
               b(2) = (  0.000000  1.000000  0.000000 )  
               b(3) = (  0.000000  0.000000  1.000000 )  


     PseudoPot. # 1 for Gd read from file:
     /home/shaharpit/AcHProject/meam_fit/dft/qe_potentials/Gd.GGA-PBE-paw-v1.0.UPF
     MD5 check sum: 3e8e0d208da550914ae52eaf991d13de
     Pseudo is Projector augmented-wave + core cor, Zval = 18.0
     Generated using ATOMPAW code
     Shape of augmentation charge: BESSEL
     Using radial grid of 1110 points,  8 beta functions with: 
                l(1) =   0
                l(2) =   0
                l(3) =   1
                l(4) =   1
                l(5) =   2
                l(6) =   2
                l(7) =   3
                l(8) =   3
     Q(r) pseudized with 0 coefficients 


     PseudoPot. # 2 for  H read from file:
     /home/shaharpit/AcHProject/meam_fit/dft/qe_potentials/H.pbe-rrkjus_psl.1.0.0.UPF
     MD5 check sum: f52b6d4d1c606e5624b1dc7b2218f220
     Pseudo is Ultrasoft, Zval =  1.0
     Generated using "atomic" code by A. Dal Corso  v.5.1
     Using radial grid of  929 points,  2 beta functions with: 
     lattice parameter (alat)  =      10.6492  a.u.
     unit-cell volume          =    1207.6685 (a.u.)^3
     number of atoms/cell      =           12
     number of atomic types    =            2
     number of electrons       =        80.00
     number of Kohn-Sham states=           48
     kinetic-energy cutoff     =      50.0000  Ry
     charge density cutoff     =     200.0000  Ry
     convergence threshold     =      1.0E-06
     mixing beta               =       0.7000
     number of iterations used =            8  plain     mixing
     Exchange-correlation      = PBE ( 1  4  3  4 0 0)
     nstep                     =          150


     celldm(1)=  10.649174  celldm(2)=   0.000000  celldm(3)=   0.000000
     celldm(4)=   0.000000  celldm(5)=   0.000000  celldm(6)=   0.000000

     crystal axes: (cart. coord. in units of alat)
               a(1) = (   1.000000   0.000000   0.000000 )  
               a(2) = (   0.000000   1.000000   0.000000 )  
               a(3) = (   0.000000   0.000000   1.000000 )  

     reciprocal axes: (cart. coord. in units 2 pi/alat)
               b(1) = (  1.000000  0.000000  0.000000 )  
               b(2) = (  0.000000  1.000000  0.000000 )  
               b(3) = (  0.000000  0.000000  1.000000 )  


     PseudoPot. # 1 for Gd read from file:
     /home/shaharpit/AcHProject/meam_fit/dft/qe_potentials/Gd.GGA-PBE-paw-v1.0.UPF
     MD5 check sum: 3e8e0d208da550914ae52eaf991d13de
     Pseudo is Projector augmented-wave + core cor, Zval = 18.0
     Generated using ATOMPAW code
     Shape of augmentation charge: BESSEL
     Using radial grid of 1110 points,  8 beta functions with: 
                l(1) =   0
                l(2) =   0
                l(3) =   1
                l(4) =   1
                l(5) =   2
                l(6) =   2
                l(7) =   3
                l(8) =   3
     Q(r) pseudized with 0 coefficients 


     PseudoPot. # 2 for  H read from file:
     /home/shaharpit/AcHProject/meam_fit/dft/qe_potentials/H.pbe-rrkjus_psl.1.0.0.UPF
     MD5 check sum: f52b6d4d1c606e5624b1dc7b2218f220
     Pseudo is Ultrasoft, Zval =  1.0
     Generated using "atomic" code by A. Dal Corso  v.5.1
     Using radial grid of  929 points,  2 beta functions with: 
                l(1) =   0
                l(2) =   0
     Q(r) pseudized with 0 coefficients 
     number of atoms/cell      =           12
     number of atomic types    =            2
     number of electrons       =        80.00
     number of Kohn-Sham states=           48
     kinetic-energy cutoff     =      50.0000  Ry
     charge density cutoff     =     200.0000  Ry
     convergence threshold     =      1.0E-06
     mixing beta               =       0.7000
     number of iterations used =            8  plain     mixing
     Exchange-correlation      = PBE ( 1  4  3  4 0 0)
     nstep                     =          150


     celldm(1)=  10.649174  celldm(2)=   0.000000  celldm(3)=   0.000000
     celldm(4)=   0.000000  celldm(5)=   0.000000  celldm(6)=   0.000000

     crystal axes: (cart. coord. in units of alat)
               a(1) = (   1.000000   0.000000   0.000000 )  
               a(2) = (   0.000000   1.000000   0.000000 )  
               a(3) = (   0.000000   0.000000   1.000000 )  

     reciprocal axes: (cart. coord. in units 2 pi/alat)
               b(1) = (  1.000000  0.000000  0.000000 )  
               b(2) = (  0.000000  1.000000  0.000000 )  
               b(3) = (  0.000000  0.000000  1.000000 )  


     PseudoPot. # 1 for Gd read from file:
     /home/shaharpit/AcHProject/meam_fit/dft/qe_potentials/Gd.GGA-PBE-paw-v1.0.UPF
     MD5 check sum: 3e8e0d208da550914ae52eaf991d13de
     Pseudo is Projector augmented-wave + core cor, Zval = 18.0
     Generated using ATOMPAW code
     Shape of augmentation charge: BESSEL
     Using radial grid of 1110 points,  8 beta functions with: 
                l(1) =   0
                l(2) =   0
                l(3) =   1
                l(4) =   1
                l(5) =   2
                l(6) =   2
                l(7) =   3
                l(8) =   3
     Q(r) pseudized with 0 coefficients 


     PseudoPot. # 2 for  H read from file:
     /home/shaharpit/AcHProject/meam_fit/dft/qe_potentials/H.pbe-rrkjus_psl.1.0.0.UPF
               a(3) = (   0.000000   0.000000   1.000000 )  

     reciprocal axes: (cart. coord. in units 2 pi/alat)
               b(1) = (  1.000000  0.000000  0.000000 )  
               b(2) = (  0.000000  1.000000  0.000000 )  
               b(3) = (  0.000000  0.000000  1.000000 )  


     PseudoPot. # 1 for Gd read from file:
     /home/shaharpit/AcHProject/meam_fit/dft/qe_potentials/Gd.GGA-PBE-paw-v1.0.UPF
     MD5 check sum: 3e8e0d208da550914ae52eaf991d13de
     Pseudo is Projector augmented-wave + core cor, Zval = 18.0
     Generated using ATOMPAW code
     Shape of augmentation charge: BESSEL
     Using radial grid of 1110 points,  8 beta functions with: 
                l(1) =   0
                l(2) =   0
                l(3) =   1
                l(4) =   1
                l(5) =   2
                l(6) =   2
                l(7) =   3
                l(8) =   3
     Q(r) pseudized with 0 coefficients 


     PseudoPot. # 2 for  H read from file:
     /home/shaharpit/AcHProject/meam_fit/dft/qe_potentials/H.pbe-rrkjus_psl.1.0.0.UPF
     MD5 check sum: f52b6d4d1c606e5624b1dc7b2218f220
     Pseudo is Ultrasoft, Zval =  1.0
     Generated using "atomic" code by A. Dal Corso  v.5.1
     Using radial grid of  929 points,  2 beta functions with: 
                l(1) =   0
                l(2) =   0
     Q(r) pseudized with 0 coefficients 


     atomic species   valence    mass     pseudopotential
     /home/shaharpit/AcHProject/meam_fit/dft/qe_potentials/Gd.GGA-PBE-paw-v1.0.UPF
     MD5 check sum: 3e8e0d208da550914ae52eaf991d13de
     Pseudo is Projector augmented-wave + core cor, Zval = 18.0
     Generated using ATOMPAW code
     Shape of augmentation charge: BESSEL
     Using radial grid of 1110 points,  8 beta functions with: 
                l(1) =   0
                l(2) =   0
                l(3) =   1
                l(4) =   1
                l(5) =   2
                l(6) =   2
                l(7) =   3
                l(8) =   3
     Q(r) pseudized with 0 coefficients 


     PseudoPot. # 2 for  H read from file:
     /home/shaharpit/AcHProject/meam_fit/dft/qe_potentials/H.pbe-rrkjus_psl.1.0.0.UPF
     MD5 check sum: f52b6d4d1c606e5624b1dc7b2218f220
     Pseudo is Ultrasoft, Zval =  1.0
     Generated using "atomic" code by A. Dal Corso  v.5.1
     Using radial grid of  929 points,  2 beta functions with: 
                l(1) =   0
                l(2) =   0
     Q(r) pseudized with 0 coefficients 


     atomic species   valence    mass     pseudopotential
        Gd            18.00   157.25000     Gd( 1.00)
        H              1.00     1.00794      H( 1.00)

     48 Sym. Ops., with inversion, found



   Cartesian axes

     site n.     atom                  positions (alat units)
         1           Gd  tau(   1) = (   0.0000000   0.0000000   0.0000000  )
         2           Gd  tau(   2) = (   0.0000000   0.5000000   0.5000000  )
     Pseudo is Projector augmented-wave + core cor, Zval = 18.0
     Generated using ATOMPAW code
     Shape of augmentation charge: BESSEL
     Using radial grid of 1110 points,  8 beta functions with: 
                l(1) =   0
                l(2) =   0
                l(3) =   1
                l(4) =   1
                l(5) =   2
                l(6) =   2
                l(7) =   3
                l(8) =   3
     Q(r) pseudized with 0 coefficients 


     PseudoPot. # 2 for  H read from file:
     /home/shaharpit/AcHProject/meam_fit/dft/qe_potentials/H.pbe-rrkjus_psl.1.0.0.UPF
     MD5 check sum: f52b6d4d1c606e5624b1dc7b2218f220
     Pseudo is Ultrasoft, Zval =  1.0
     Generated using "atomic" code by A. Dal Corso  v.5.1
     Using radial grid of  929 points,  2 beta functions with: 
                l(1) =   0
                l(2) =   0
     Q(r) pseudized with 0 coefficients 


     atomic species   valence    mass     pseudopotential
        Gd            18.00   157.25000     Gd( 1.00)
        H              1.00     1.00794      H( 1.00)

     48 Sym. Ops., with inversion, found



   Cartesian axes

     site n.     atom                  positions (alat units)
                l(4) =   1
                l(5) =   2
                l(6) =   2
                l(7) =   3
                l(8) =   3
     Q(r) pseudized with 0 coefficients 


     PseudoPot. # 2 for  H read from file:
     /home/shaharpit/AcHProject/meam_fit/dft/qe_potentials/H.pbe-rrkjus_psl.1.0.0.UPF
     MD5 check sum: f52b6d4d1c606e5624b1dc7b2218f220
     Pseudo is Ultrasoft, Zval =  1.0
     Generated using "atomic" code by A. Dal Corso  v.5.1
     Using radial grid of  929 points,  2 beta functions with: 
                l(1) =   0
                l(2) =   0
     Q(r) pseudized with 0 coefficients 


     atomic species   valence    mass     pseudopotential
        Gd            18.00   157.25000     Gd( 1.00)
        H              1.00     1.00794      H( 1.00)

     48 Sym. Ops., with inversion, found



   Cartesian axes

     site n.     atom                  positions (alat units)
         1           Gd  tau(   1) = (   0.0000000   0.0000000   0.0000000  )
         1           Gd  tau(   1) = (   0.0000000   0.0000000   0.0000000  )
         2           Gd  tau(   2) = (   0.0000000   0.5000000   0.5000000  )
         3           Gd  tau(   3) = (   0.5000000   0.0000000   0.5000000  )
         4           Gd  tau(   4) = (   0.5000000   0.5000000   0.0000000  )
         5           H   tau(   5) = (   0.2500000   0.2500000   0.2500000  )
         6           H   tau(   6) = (   0.2500000   0.7500000   0.7500000  )
         7           H   tau(   7) = (   0.7500000   0.2500000   0.7500000  )
         8           H   tau(   8) = (   0.7500000   0.7500000   0.2500000  )
         9           H   tau(   9) = (   0.2500000   0.7500000   0.2500000  )
        10           H   tau(  10) = (   0.2500000   0.2500000   0.7500000  )
        11           H   tau(  11) = (   0.7500000   0.7500000   0.7500000  )
        12           H   tau(  12) = (   0.7500000   0.2500000   0.2500000  )

     number of k points=    10  gaussian smearing, width (Ry)=  0.0100
                       cart. coord. in units 2pi/alat
        k(    1) = (   0.0000000   0.0000000   0.0000000), wk =   0.0312500
 
     G-vector sticks info
     --------------------
     sticks:   dense  smooth     PW     G-vecs:    dense   smooth      PW
     Sum        1789    1789    517                57747    57747    8925
 


     bravais-lattice index     =            0
     lattice parameter (alat)  =      10.6492  a.u.
     unit-cell volume          =    1207.6685 (a.u.)^3
                l(1) =   0
                l(2) =   0
     Q(r) pseudized with 0 coefficients 


     atomic species   valence    mass     pseudopotential
        Gd            18.00   157.25000     Gd( 1.00)
        H              1.00     1.00794      H( 1.00)

     48 Sym. Ops., with inversion, found



   Cartesian axes

     site n.     atom                  positions (alat units)
         1           Gd  tau(   1) = (   0.0000000   0.0000000   0.0000000  )
         2           Gd  tau(   2) = (   0.0000000   0.5000000   0.5000000  )
         3           Gd  tau(   3) = (   0.5000000   0.0000000   0.5000000  )
         4           Gd  tau(   4) = (   0.5000000   0.5000000   0.0000000  )
         5           H   tau(   5) = (   0.2500000   0.2500000   0.2500000  )
         6           H   tau(   6) = (   0.2500000   0.7500000   0.7500000  )
         7           H   tau(   7) = (   0.7500000   0.2500000   0.7500000  )
         8           H   tau(   8) = (   0.7500000   0.7500000   0.2500000  )
         9           H   tau(   9) = (   0.2500000   0.7500000   0.2500000  )
        10           H   tau(  10) = (   0.2500000   0.2500000   0.7500000  )
        11           H   tau(  11) = (   0.7500000   0.7500000   0.7500000  )
        12           H   tau(  12) = (   0.7500000   0.2500000   0.2500000  )

     number of k points=    10  gaussian smearing, width (Ry)=  0.0100
                       cart. coord. in units 2pi/alat
        k(    1) = (   0.0000000   0.0000000   0.0000000), wk =   0.0312500
        k(    2) = (   0.0000000   0.0000000   0.2500000), wk =   0.1875000
        k(    3) = (   0.0000000   0.0000000  -0.5000000), wk =   0.0937500
        k(    4) = (   0.0000000   0.2500000   0.2500000), wk =   0.3750000
        k(    5) = (   0.0000000   0.2500000  -0.5000000), wk =   0.3750000
        k(    6) = (   0.0000000  -0.5000000  -0.5000000), wk =   0.0937500
        k(    7) = (   0.2500000   0.2500000   0.2500000), wk =   0.2500000
        k(    8) = (   0.2500000   0.2500000  -0.5000000), wk =   0.3750000
        k(    9) = (   0.2500000  -0.5000000  -0.5000000), wk =   0.1875000


     atomic species   valence    mass     pseudopotential
        Gd            18.00   157.25000     Gd( 1.00)
        H              1.00     1.00794      H( 1.00)

     48 Sym. Ops., with inversion, found



   Cartesian axes

     site n.     atom                  positions (alat units)
         1           Gd  tau(   1) = (   0.0000000   0.0000000   0.0000000  )
         2           Gd  tau(   2) = (   0.0000000   0.5000000   0.5000000  )
         3           Gd  tau(   3) = (   0.5000000   0.0000000   0.5000000  )
         4           Gd  tau(   4) = (   0.5000000   0.5000000   0.0000000  )
         5           H   tau(   5) = (   0.2500000   0.2500000   0.2500000  )
         6           H   tau(   6) = (   0.2500000   0.7500000   0.7500000  )
         7           H   tau(   7) = (   0.7500000   0.2500000   0.7500000  )
         8           H   tau(   8) = (   0.7500000   0.7500000   0.2500000  )
         9           H   tau(   9) = (   0.2500000   0.7500000   0.2500000  )
        10           H   tau(  10) = (   0.2500000   0.2500000   0.7500000  )
        11           H   tau(  11) = (   0.7500000   0.7500000   0.7500000  )
        12           H   tau(  12) = (   0.7500000   0.2500000   0.2500000  )

     number of k points=    10  gaussian smearing, width (Ry)=  0.0100
                       cart. coord. in units 2pi/alat
        k(    1) = (   0.0000000   0.0000000   0.0000000), wk =   0.0312500
        k(    2) = (   0.0000000   0.0000000   0.2500000), wk =   0.1875000
        k(    3) = (   0.0000000   0.0000000  -0.5000000), wk =   0.0937500
        k(    4) = (   0.0000000   0.2500000   0.2500000), wk =   0.3750000
        k(    5) = (   0.0000000   0.2500000  -0.5000000), wk =   0.3750000
        k(    6) = (   0.0000000  -0.5000000  -0.5000000), wk =   0.0937500
        k(    7) = (   0.2500000   0.2500000   0.2500000), wk =   0.2500000
        k(    8) = (   0.2500000   0.2500000  -0.5000000), wk =   0.3750000
        k(    9) = (   0.2500000  -0.5000000  -0.5000000), wk =   0.1875000
     MD5 check sum: f52b6d4d1c606e5624b1dc7b2218f220
     Pseudo is Ultrasoft, Zval =  1.0
     Generated using "atomic" code by A. Dal Corso  v.5.1
     Using radial grid of  929 points,  2 beta functions with: 
                l(1) =   0
                l(2) =   0
     Q(r) pseudized with 0 coefficients 


     atomic species   valence    mass     pseudopotential
        Gd            18.00   157.25000     Gd( 1.00)
        H              1.00     1.00794      H( 1.00)

     48 Sym. Ops., with inversion, found



   Cartesian axes

     site n.     atom                  positions (alat units)
         1           Gd  tau(   1) = (   0.0000000   0.0000000   0.0000000  )
         2           Gd  tau(   2) = (   0.0000000   0.5000000   0.5000000  )
         3           Gd  tau(   3) = (   0.5000000   0.0000000   0.5000000  )
         4           Gd  tau(   4) = (   0.5000000   0.5000000   0.0000000  )
         5           H   tau(   5) = (   0.2500000   0.2500000   0.2500000  )
         6           H   tau(   6) = (   0.2500000   0.7500000   0.7500000  )
         7           H   tau(   7) = (   0.7500000   0.2500000   0.7500000  )
         8           H   tau(   8) = (   0.7500000   0.7500000   0.2500000  )
         9           H   tau(   9) = (   0.2500000   0.7500000   0.2500000  )
        10           H   tau(  10) = (   0.2500000   0.2500000   0.7500000  )
        11           H   tau(  11) = (   0.7500000   0.7500000   0.7500000  )
        12           H   tau(  12) = (   0.7500000   0.2500000   0.2500000  )

     number of k points=    10  gaussian smearing, width (Ry)=  0.0100
                       cart. coord. in units 2pi/alat
        k(    1) = (   0.0000000   0.0000000   0.0000000), wk =   0.0312500
        k(    2) = (   0.0000000   0.0000000   0.2500000), wk =   0.1875000
        k(    3) = (   0.0000000   0.0000000  -0.5000000), wk =   0.0937500
        Gd            18.00   157.25000     Gd( 1.00)
        H              1.00     1.00794      H( 1.00)

     48 Sym. Ops., with inversion, found



   Cartesian axes

     site n.     atom                  positions (alat units)
         1           Gd  tau(   1) = (   0.0000000   0.0000000   0.0000000  )
         2           Gd  tau(   2) = (   0.0000000   0.5000000   0.5000000  )
         3           Gd  tau(   3) = (   0.5000000   0.0000000   0.5000000  )
         4           Gd  tau(   4) = (   0.5000000   0.5000000   0.0000000  )
         5           H   tau(   5) = (   0.2500000   0.2500000   0.2500000  )
         6           H   tau(   6) = (   0.2500000   0.7500000   0.7500000  )
         7           H   tau(   7) = (   0.7500000   0.2500000   0.7500000  )
         8           H   tau(   8) = (   0.7500000   0.7500000   0.2500000  )
         9           H   tau(   9) = (   0.2500000   0.7500000   0.2500000  )
        10           H   tau(  10) = (   0.2500000   0.2500000   0.7500000  )
        11           H   tau(  11) = (   0.7500000   0.7500000   0.7500000  )
        12           H   tau(  12) = (   0.7500000   0.2500000   0.2500000  )

     number of k points=    10  gaussian smearing, width (Ry)=  0.0100
                       cart. coord. in units 2pi/alat
        k(    1) = (   0.0000000   0.0000000   0.0000000), wk =   0.0312500
        k(    2) = (   0.0000000   0.0000000   0.2500000), wk =   0.1875000
        k(    3) = (   0.0000000   0.0000000  -0.5000000), wk =   0.0937500
        k(    4) = (   0.0000000   0.2500000   0.2500000), wk =   0.3750000
        k(    5) = (   0.0000000   0.2500000  -0.5000000), wk =   0.3750000
        k(    6) = (   0.0000000  -0.5000000  -0.5000000), wk =   0.0937500
        k(    7) = (   0.2500000   0.2500000   0.2500000), wk =   0.2500000
        k(    8) = (   0.2500000   0.2500000  -0.5000000), wk =   0.3750000
        k(    9) = (   0.2500000  -0.5000000  -0.5000000), wk =   0.1875000
        k(   10) = (  -0.5000000  -0.5000000  -0.5000000), wk =   0.0312500

         3           Gd  tau(   3) = (   0.5000000   0.0000000   0.5000000  )
         4           Gd  tau(   4) = (   0.5000000   0.5000000   0.0000000  )
         5           H   tau(   5) = (   0.2500000   0.2500000   0.2500000  )
         6           H   tau(   6) = (   0.2500000   0.7500000   0.7500000  )
         7           H   tau(   7) = (   0.7500000   0.2500000   0.7500000  )
         8           H   tau(   8) = (   0.7500000   0.7500000   0.2500000  )
         9           H   tau(   9) = (   0.2500000   0.7500000   0.2500000  )
        10           H   tau(  10) = (   0.2500000   0.2500000   0.7500000  )
        11           H   tau(  11) = (   0.7500000   0.7500000   0.7500000  )
        12           H   tau(  12) = (   0.7500000   0.2500000   0.2500000  )

     number of k points=    10  gaussian smearing, width (Ry)=  0.0100
                       cart. coord. in units 2pi/alat
        k(    1) = (   0.0000000   0.0000000   0.0000000), wk =   0.0312500
        k(    2) = (   0.0000000   0.0000000   0.2500000), wk =   0.1875000
        k(    3) = (   0.0000000   0.0000000  -0.5000000), wk =   0.0937500
        k(    4) = (   0.0000000   0.2500000   0.2500000), wk =   0.3750000
        k(    5) = (   0.0000000   0.2500000  -0.5000000), wk =   0.3750000
        k(    6) = (   0.0000000  -0.5000000  -0.5000000), wk =   0.0937500
        k(    7) = (   0.2500000   0.2500000   0.2500000), wk =   0.2500000
        k(    8) = (   0.2500000   0.2500000  -0.5000000), wk =   0.3750000
        k(    9) = (   0.2500000  -0.5000000  -0.5000000), wk =   0.1875000
        k(   10) = (  -0.5000000  -0.5000000  -0.5000000), wk =   0.0312500

     Dense  grid:    57747 G-vectors     FFT dimensions: (  48,  48,  48)
         2           Gd  tau(   2) = (   0.0000000   0.5000000   0.5000000  )
         3           Gd  tau(   3) = (   0.5000000   0.0000000   0.5000000  )
         4           Gd  tau(   4) = (   0.5000000   0.5000000   0.0000000  )
         5           H   tau(   5) = (   0.2500000   0.2500000   0.2500000  )
         6           H   tau(   6) = (   0.2500000   0.7500000   0.7500000  )
         7           H   tau(   7) = (   0.7500000   0.2500000   0.7500000  )
         8           H   tau(   8) = (   0.7500000   0.7500000   0.2500000  )
         9           H   tau(   9) = (   0.2500000   0.7500000   0.2500000  )
        10           H   tau(  10) = (   0.2500000   0.2500000   0.7500000  )
        11           H   tau(  11) = (   0.7500000   0.7500000   0.7500000  )
        12           H   tau(  12) = (   0.7500000   0.2500000   0.2500000  )

     number of k points=    10  gaussian smearing, width (Ry)=  0.0100
                       cart. coord. in units 2pi/alat
        k(    1) = (   0.0000000   0.0000000   0.0000000), wk =   0.0312500
        k(    2) = (   0.0000000   0.0000000   0.2500000), wk =   0.1875000
        k(    3) = (   0.0000000   0.0000000  -0.5000000), wk =   0.0937500
        k(    4) = (   0.0000000   0.2500000   0.2500000), wk =   0.3750000
        k(    5) = (   0.0000000   0.2500000  -0.5000000), wk =   0.3750000
        k(    6) = (   0.0000000  -0.5000000  -0.5000000), wk =   0.0937500
        k(    7) = (   0.2500000   0.2500000   0.2500000), wk =   0.2500000
        k(    8) = (   0.2500000   0.2500000  -0.5000000), wk =   0.3750000
        k(    9) = (   0.2500000  -0.5000000  -0.5000000), wk =   0.1875000
        k(   10) = (  -0.5000000  -0.5000000  -0.5000000), wk =   0.0312500

     Dense  grid:    57747 G-vectors     FFT dimensions: (  48,  48,  48)
        k(    2) = (   0.0000000   0.0000000   0.2500000), wk =   0.1875000
        k(    3) = (   0.0000000   0.0000000  -0.5000000), wk =   0.0937500
        k(    4) = (   0.0000000   0.2500000   0.2500000), wk =   0.3750000
        k(    5) = (   0.0000000   0.2500000  -0.5000000), wk =   0.3750000
        k(    6) = (   0.0000000  -0.5000000  -0.5000000), wk =   0.0937500
        k(    7) = (   0.2500000   0.2500000   0.2500000), wk =   0.2500000
        k(    8) = (   0.2500000   0.2500000  -0.5000000), wk =   0.3750000
        k(    9) = (   0.2500000  -0.5000000  -0.5000000), wk =   0.1875000
        k(   10) = (  -0.5000000  -0.5000000  -0.5000000), wk =   0.0312500

     Dense  grid:    57747 G-vectors     FFT dimensions: (  48,  48,  48)
     number of atoms/cell      =           12
     number of atomic types    =            2
     number of electrons       =        80.00
     number of Kohn-Sham states=           48
     kinetic-energy cutoff     =      50.0000  Ry
     charge density cutoff     =     200.0000  Ry
     convergence threshold     =      1.0E-06
     mixing beta               =       0.7000
     number of iterations used =            8  plain     mixing
     Exchange-correlation      = PBE ( 1  4  3  4 0 0)
     nstep                     =          150


     celldm(1)=  10.649174  celldm(2)=   0.000000  celldm(3)=   0.000000
     celldm(4)=   0.000000  celldm(5)=   0.000000  celldm(6)=   0.000000

        k(   10) = (  -0.5000000  -0.5000000  -0.5000000), wk =   0.0312500

     Dense  grid:    57747 G-vectors     FFT dimensions: (  48,  48,  48)
        k(   10) = (  -0.5000000  -0.5000000  -0.5000000), wk =   0.0312500

     Dense  grid:    57747 G-vectors     FFT dimensions: (  48,  48,  48)
        k(    4) = (   0.0000000   0.2500000   0.2500000), wk =   0.3750000
        k(    5) = (   0.0000000   0.2500000  -0.5000000), wk =   0.3750000
        k(    6) = (   0.0000000  -0.5000000  -0.5000000), wk =   0.0937500
        k(    7) = (   0.2500000   0.2500000   0.2500000), wk =   0.2500000
        k(    8) = (   0.2500000   0.2500000  -0.5000000), wk =   0.3750000
        k(    9) = (   0.2500000  -0.5000000  -0.5000000), wk =   0.1875000
        k(   10) = (  -0.5000000  -0.5000000  -0.5000000), wk =   0.0312500

     Dense  grid:    57747 G-vectors     FFT dimensions: (  48,  48,  48)
     Dense  grid:    57747 G-vectors     FFT dimensions: (  48,  48,  48)
     crystal axes: (cart. coord. in units of alat)
               a(1) = (   1.000000   0.000000   0.000000 )  
               a(2) = (   0.000000   1.000000   0.000000 )  
               a(3) = (   0.000000   0.000000   1.000000 )  

     reciprocal axes: (cart. coord. in units 2 pi/alat)
               b(1) = (  1.000000  0.000000  0.000000 )  
               b(2) = (  0.000000  1.000000  0.000000 )  
               b(3) = (  0.000000  0.000000  1.000000 )  


     PseudoPot. # 1 for Gd read from file:
     /home/shaharpit/AcHProject/meam_fit/dft/qe_potentials/Gd.GGA-PBE-paw-v1.0.UPF
     MD5 check sum: 3e8e0d208da550914ae52eaf991d13de
     Pseudo is Projector augmented-wave + core cor, Zval = 18.0
     Generated using ATOMPAW code
     Shape of augmentation charge: BESSEL
     Using radial grid of 1110 points,  8 beta functions with: 
                l(1) =   0
                l(2) =   0
                l(3) =   1
                l(4) =   1
                l(5) =   2
                l(6) =   2
                l(7) =   3
                l(8) =   3
     Q(r) pseudized with 0 coefficients 


     PseudoPot. # 2 for  H read from file:
     /home/shaharpit/AcHProject/meam_fit/dft/qe_potentials/H.pbe-rrkjus_psl.1.0.0.UPF
     MD5 check sum: f52b6d4d1c606e5624b1dc7b2218f220
     Pseudo is Ultrasoft, Zval =  1.0
     Generated using "atomic" code by A. Dal Corso  v.5.1
     Using radial grid of  929 points,  2 beta functions with: 
                l(1) =   0
                l(2) =   0
     Q(r) pseudized with 0 coefficients 


     atomic species   valence    mass     pseudopotential
        Gd            18.00   157.25000     Gd( 1.00)
        H              1.00     1.00794      H( 1.00)

     48 Sym. Ops., with inversion, found



   Cartesian axes

     site n.     atom                  positions (alat units)
         1           Gd  tau(   1) = (   0.0000000   0.0000000   0.0000000  )
         2           Gd  tau(   2) = (   0.0000000   0.5000000   0.5000000  )
         3           Gd  tau(   3) = (   0.5000000   0.0000000   0.5000000  )
         4           Gd  tau(   4) = (   0.5000000   0.5000000   0.0000000  )
         5           H   tau(   5) = (   0.2500000   0.2500000   0.2500000  )
         6           H   tau(   6) = (   0.2500000   0.7500000   0.7500000  )
         7           H   tau(   7) = (   0.7500000   0.2500000   0.7500000  )
         8           H   tau(   8) = (   0.7500000   0.7500000   0.2500000  )
         9           H   tau(   9) = (   0.2500000   0.7500000   0.2500000  )

     Subspace diagonalization in iterative solution of the eigenvalue problem:
     a serial algorithm will be used

        10           H   tau(  10) = (   0.2500000   0.2500000   0.7500000  )
        11           H   tau(  11) = (   0.7500000   0.7500000   0.7500000  )
        12           H   tau(  12) = (   0.7500000   0.2500000   0.2500000  )

     number of k points=    10  gaussian smearing, width (Ry)=  0.0100
                       cart. coord. in units 2pi/alat
        k(    1) = (   0.0000000   0.0000000   0.0000000), wk =   0.0312500
        k(    2) = (   0.0000000   0.0000000   0.2500000), wk =   0.1875000
        k(    3) = (   0.0000000   0.0000000  -0.5000000), wk =   0.0937500
        k(    4) = (   0.0000000   0.2500000   0.2500000), wk =   0.3750000
        k(    5) = (   0.0000000   0.2500000  -0.5000000), wk =   0.3750000
        k(    6) = (   0.0000000  -0.5000000  -0.5000000), wk =   0.0937500
        k(    7) = (   0.2500000   0.2500000   0.2500000), wk =   0.2500000
        k(    8) = (   0.2500000   0.2500000  -0.5000000), wk =   0.3750000
        k(    9) = (   0.2500000  -0.5000000  -0.5000000), wk =   0.1875000
        k(   10) = (  -0.5000000  -0.5000000  -0.5000000), wk =   0.0312500

     Dense  grid:    57747 G-vectors     FFT dimensions: (  48,  48,  48)

     Estimated max dynamical RAM per process >     149.01MB

     Estimated max dynamical RAM per process >     149.01MB

     Estimated max dynamical RAM per process >     149.01MB

     Estimated max dynamical RAM per process >     149.01MB

     Estimated max dynamical RAM per process >     149.01MB

     Estimated max dynamical RAM per process >     149.01MB

     Estimated max dynamical RAM per process >     149.01MB

     Estimated max dynamical RAM per process >     149.01MB
 
     G-vector sticks info
     --------------------
     sticks:   dense  smooth     PW     G-vecs:    dense   smooth      PW
     Sum        1789    1789    517                57747    57747    8925
 


     bravais-lattice index     =            0
     lattice parameter (alat)  =      10.6492  a.u.
     unit-cell volume          =    1207.6685 (a.u.)^3
     number of atoms/cell      =           12
     number of atomic types    =            2
     number of electrons       =        80.00
     number of Kohn-Sham states=           48
     kinetic-energy cutoff     =      50.0000  Ry
     charge density cutoff     =     200.0000  Ry
     convergence threshold     =      1.0E-06
     mixing beta               =       0.7000
     number of iterations used =            8  plain     mixing
     Exchange-correlation      = PBE ( 1  4  3  4 0 0)
     nstep                     =          150


     celldm(1)=  10.649174  celldm(2)=   0.000000  celldm(3)=   0.000000
     celldm(4)=   0.000000  celldm(5)=   0.000000  celldm(6)=   0.000000

     crystal axes: (cart. coord. in units of alat)
               a(1) = (   1.000000   0.000000   0.000000 )  
               a(2) = (   0.000000   1.000000   0.000000 )  
               a(3) = (   0.000000   0.000000   1.000000 )  

     reciprocal axes: (cart. coord. in units 2 pi/alat)
               b(1) = (  1.000000  0.000000  0.000000 )  
               b(2) = (  0.000000  1.000000  0.000000 )  
               b(3) = (  0.000000  0.000000  1.000000 )  


     PseudoPot. # 1 for Gd read from file:
     /home/shaharpit/AcHProject/meam_fit/dft/qe_potentials/Gd.GGA-PBE-paw-v1.0.UPF
     MD5 check sum: 3e8e0d208da550914ae52eaf991d13de
     Pseudo is Projector augmented-wave + core cor, Zval = 18.0
     Generated using ATOMPAW code
     Shape of augmentation charge: BESSEL
     Using radial grid of 1110 points,  8 beta functions with: 
                l(1) =   0
                l(2) =   0
                l(3) =   1
                l(4) =   1
                l(5) =   2
                l(6) =   2
                l(7) =   3
                l(8) =   3
     Q(r) pseudized with 0 coefficients 


     PseudoPot. # 2 for  H read from file:
     /home/shaharpit/AcHProject/meam_fit/dft/qe_potentials/H.pbe-rrkjus_psl.1.0.0.UPF
     MD5 check sum: f52b6d4d1c606e5624b1dc7b2218f220
     Pseudo is Ultrasoft, Zval =  1.0
     Generated using "atomic" code by A. Dal Corso  v.5.1
     Using radial grid of  929 points,  2 beta functions with: 
                l(1) =   0
                l(2) =   0
     Q(r) pseudized with 0 coefficients 


     atomic species   valence    mass     pseudopotential
        Gd            18.00   157.25000     Gd( 1.00)
        H              1.00     1.00794      H( 1.00)

     48 Sym. Ops., with inversion, found



   Cartesian axes

     site n.     atom                  positions (alat units)
         1           Gd  tau(   1) = (   0.0000000   0.0000000   0.0000000  )
         2           Gd  tau(   2) = (   0.0000000   0.5000000   0.5000000  )
         3           Gd  tau(   3) = (   0.5000000   0.0000000   0.5000000  )
         4           Gd  tau(   4) = (   0.5000000   0.5000000   0.0000000  )
         5           H   tau(   5) = (   0.2500000   0.2500000   0.2500000  )
         6           H   tau(   6) = (   0.2500000   0.7500000   0.7500000  )
         7           H   tau(   7) = (   0.7500000   0.2500000   0.7500000  )
         8           H   tau(   8) = (   0.7500000   0.7500000   0.2500000  )
         9           H   tau(   9) = (   0.2500000   0.7500000   0.2500000  )
        10           H   tau(  10) = (   0.2500000   0.2500000   0.7500000  )
        11           H   tau(  11) = (   0.7500000   0.7500000   0.7500000  )
        12           H   tau(  12) = (   0.7500000   0.2500000   0.2500000  )

     number of k points=    10  gaussian smearing, width (Ry)=  0.0100
                       cart. coord. in units 2pi/alat
        k(    1) = (   0.0000000   0.0000000   0.0000000), wk =   0.0312500
        k(    2) = (   0.0000000   0.0000000   0.2500000), wk =   0.1875000
        k(    3) = (   0.0000000   0.0000000  -0.5000000), wk =   0.0937500
        k(    4) = (   0.0000000   0.2500000   0.2500000), wk =   0.3750000
        k(    5) = (   0.0000000   0.2500000  -0.5000000), wk =   0.3750000
        k(    6) = (   0.0000000  -0.5000000  -0.5000000), wk =   0.0937500
        k(    7) = (   0.2500000   0.2500000   0.2500000), wk =   0.2500000
        k(    8) = (   0.2500000   0.2500000  -0.5000000), wk =   0.3750000
        k(    9) = (   0.2500000  -0.5000000  -0.5000000), wk =   0.1875000
        k(   10) = (  -0.5000000  -0.5000000  -0.5000000), wk =   0.0312500

     Dense  grid:    57747 G-vectors     FFT dimensions: (  48,  48,  48)

     Estimated max dynamical RAM per process >     149.01MB

     Subspace diagonalization in iterative solution of the eigenvalue problem:
     a serial algorithm will be used

     Found symmetry operation: I + (  0.0000 -0.5000 -0.5000)
     This is a supercell, fractional translations are disabled
               file Gd.GGA-PBE-paw-v1.0.UPF: wavefunction(s)  Xn Xn Xn Xn Xn Xn renormalized
               file Gd.GGA-PBE-paw-v1.0.UPF: wavefunction(s)  Xn Xn Xn Xn Xn Xn renormalized
     Found symmetry operation: I + (  0.0000 -0.5000 -0.5000)
     This is a supercell, fractional translations are disabled
 
     G-vector sticks info
     --------------------
     sticks:   dense  smooth     PW     G-vecs:    dense   smooth      PW
     Sum        1789    1789    517                57747    57747    8925
 


     bravais-lattice index     =            0
     lattice parameter (alat)  =      10.6492  a.u.
     unit-cell volume          =    1207.6685 (a.u.)^3
     number of atoms/cell      =           12
     number of atomic types    =            2
     number of electrons       =        80.00
     number of Kohn-Sham states=           48
     kinetic-energy cutoff     =      50.0000  Ry
     charge density cutoff     =     200.0000  Ry
     convergence threshold     =      1.0E-06
     mixing beta               =       0.7000
     number of iterations used =            8  plain     mixing
     Exchange-correlation      = PBE ( 1  4  3  4 0 0)
     nstep                     =          150


     celldm(1)=  10.649174  celldm(2)=   0.000000  celldm(3)=   0.000000
     celldm(4)=   0.000000  celldm(5)=   0.000000  celldm(6)=   0.000000

     crystal axes: (cart. coord. in units of alat)
               a(1) = (   1.000000   0.000000   0.000000 )  
               a(2) = (   0.000000   1.000000   0.000000 )  
               a(3) = (   0.000000   0.000000   1.000000 )  

     reciprocal axes: (cart. coord. in units 2 pi/alat)
               b(1) = (  1.000000  0.000000  0.000000 )  
               b(2) = (  0.000000  1.000000  0.000000 )  
               b(3) = (  0.000000  0.000000  1.000000 )  


     PseudoPot. # 1 for Gd read from file:
     /home/shaharpit/AcHProject/meam_fit/dft/qe_potentials/Gd.GGA-PBE-paw-v1.0.UPF
     MD5 check sum: 3e8e0d208da550914ae52eaf991d13de
     Pseudo is Projector augmented-wave + core cor, Zval = 18.0
     Generated using ATOMPAW code
     Shape of augmentation charge: BESSEL
     Using radial grid of 1110 points,  8 beta functions with: 
                l(1) =   0
                l(2) =   0
                l(3) =   1
                l(4) =   1
                l(5) =   2
                l(6) =   2
                l(7) =   3
                l(8) =   3
     Q(r) pseudized with 0 coefficients 


     PseudoPot. # 2 for  H read from file:
     /home/shaharpit/AcHProject/meam_fit/dft/qe_potentials/H.pbe-rrkjus_psl.1.0.0.UPF
     MD5 check sum: f52b6d4d1c606e5624b1dc7b2218f220
     Pseudo is Ultrasoft, Zval =  1.0
     Generated using "atomic" code by A. Dal Corso  v.5.1
     Using radial grid of  929 points,  2 beta functions with: 
                l(1) =   0
                l(2) =   0
     Q(r) pseudized with 0 coefficients 


     atomic species   valence    mass     pseudopotential
        Gd            18.00   157.25000     Gd( 1.00)
        H              1.00     1.00794      H( 1.00)

     48 Sym. Ops., with inversion, found



   Cartesian axes

     site n.     atom                  positions (alat units)
         1           Gd  tau(   1) = (   0.0000000   0.0000000   0.0000000  )
         2           Gd  tau(   2) = (   0.0000000   0.5000000   0.5000000  )
         3           Gd  tau(   3) = (   0.5000000   0.0000000   0.5000000  )
         4           Gd  tau(   4) = (   0.5000000   0.5000000   0.0000000  )
         5           H   tau(   5) = (   0.2500000   0.2500000   0.2500000  )
         6           H   tau(   6) = (   0.2500000   0.7500000   0.7500000  )
         7           H   tau(   7) = (   0.7500000   0.2500000   0.7500000  )
         8           H   tau(   8) = (   0.7500000   0.7500000   0.2500000  )
         9           H   tau(   9) = (   0.2500000   0.7500000   0.2500000  )
        10           H   tau(  10) = (   0.2500000   0.2500000   0.7500000  )
        11           H   tau(  11) = (   0.7500000   0.7500000   0.7500000  )
        12           H   tau(  12) = (   0.7500000   0.2500000   0.2500000  )

     number of k points=    10  gaussian smearing, width (Ry)=  0.0100
                       cart. coord. in units 2pi/alat
        k(    1) = (   0.0000000   0.0000000   0.0000000), wk =   0.0312500
        k(    2) = (   0.0000000   0.0000000   0.2500000), wk =   0.1875000
        k(    3) = (   0.0000000   0.0000000  -0.5000000), wk =   0.0937500
        k(    4) = (   0.0000000   0.2500000   0.2500000), wk =   0.3750000
        k(    5) = (   0.0000000   0.2500000  -0.5000000), wk =   0.3750000
        k(    6) = (   0.0000000  -0.5000000  -0.5000000), wk =   0.0937500
        k(    7) = (   0.2500000   0.2500000   0.2500000), wk =   0.2500000
        k(    8) = (   0.2500000   0.2500000  -0.5000000), wk =   0.3750000
        k(    9) = (   0.2500000  -0.5000000  -0.5000000), wk =   0.1875000
        k(   10) = (  -0.5000000  -0.5000000  -0.5000000), wk =   0.0312500

     Dense  grid:    57747 G-vectors     FFT dimensions: (  48,  48,  48)

     Estimated max dynamical RAM per process >     149.01MB
 
     G-vector sticks info
     --------------------
     sticks:   dense  smooth     PW     G-vecs:    dense   smooth      PW
     Sum        1789    1789    517                57747    57747    8925
 


     bravais-lattice index     =            0
     lattice parameter (alat)  =      10.6492  a.u.
     unit-cell volume          =    1207.6685 (a.u.)^3
     number of atoms/cell      =           12
     number of atomic types    =            2
     number of electrons       =        80.00
     number of Kohn-Sham states=           48
     kinetic-energy cutoff     =      50.0000  Ry
     charge density cutoff     =     200.0000  Ry
     convergence threshold     =      1.0E-06
     mixing beta               =       0.7000
     number of iterations used =            8  plain     mixing
     Exchange-correlation      = PBE ( 1  4  3  4 0 0)
     nstep                     =          150


     celldm(1)=  10.649174  celldm(2)=   0.000000  celldm(3)=   0.000000
     celldm(4)=   0.000000  celldm(5)=   0.000000  celldm(6)=   0.000000

     crystal axes: (cart. coord. in units of alat)
               a(1) = (   1.000000   0.000000   0.000000 )  
               a(2) = (   0.000000   1.000000   0.000000 )  
               a(3) = (   0.000000   0.000000   1.000000 )  

     reciprocal axes: (cart. coord. in units 2 pi/alat)
               b(1) = (  1.000000  0.000000  0.000000 )  
               b(2) = (  0.000000  1.000000  0.000000 )  
               b(3) = (  0.000000  0.000000  1.000000 )  


     PseudoPot. # 1 for Gd read from file:
     /home/shaharpit/AcHProject/meam_fit/dft/qe_potentials/Gd.GGA-PBE-paw-v1.0.UPF
     MD5 check sum: 3e8e0d208da550914ae52eaf991d13de
     Pseudo is Projector augmented-wave + core cor, Zval = 18.0
     Generated using ATOMPAW code
     Shape of augmentation charge: BESSEL
     Using radial grid of 1110 points,  8 beta functions with: 
                l(1) =   0
                l(2) =   0
                l(3) =   1
                l(4) =   1
                l(5) =   2
                l(6) =   2
                l(7) =   3
                l(8) =   3
     Q(r) pseudized with 0 coefficients 


     PseudoPot. # 2 for  H read from file:
     /home/shaharpit/AcHProject/meam_fit/dft/qe_potentials/H.pbe-rrkjus_psl.1.0.0.UPF
     MD5 check sum: f52b6d4d1c606e5624b1dc7b2218f220
     Pseudo is Ultrasoft, Zval =  1.0
     Generated using "atomic" code by A. Dal Corso  v.5.1
     Using radial grid of  929 points,  2 beta functions with: 
                l(1) =   0
                l(2) =   0
     Q(r) pseudized with 0 coefficients 


     atomic species   valence    mass     pseudopotential
        Gd            18.00   157.25000     Gd( 1.00)
        H              1.00     1.00794      H( 1.00)

     48 Sym. Ops., with inversion, found



   Cartesian axes

     site n.     atom                  positions (alat units)
         1           Gd  tau(   1) = (   0.0000000   0.0000000   0.0000000  )
         2           Gd  tau(   2) = (   0.0000000   0.5000000   0.5000000  )
         3           Gd  tau(   3) = (   0.5000000   0.0000000   0.5000000  )
         4           Gd  tau(   4) = (   0.5000000   0.5000000   0.0000000  )
         5           H   tau(   5) = (   0.2500000   0.2500000   0.2500000  )
         6           H   tau(   6) = (   0.2500000   0.7500000   0.7500000  )
         7           H   tau(   7) = (   0.7500000   0.2500000   0.7500000  )
         8           H   tau(   8) = (   0.7500000   0.7500000   0.2500000  )
         9           H   tau(   9) = (   0.2500000   0.7500000   0.2500000  )
        10           H   tau(  10) = (   0.2500000   0.2500000   0.7500000  )
        11           H   tau(  11) = (   0.7500000   0.7500000   0.7500000  )
        12           H   tau(  12) = (   0.7500000   0.2500000   0.2500000  )

     number of k points=    10  gaussian smearing, width (Ry)=  0.0100
                       cart. coord. in units 2pi/alat
        k(    1) = (   0.0000000   0.0000000   0.0000000), wk =   0.0312500
        k(    2) = (   0.0000000   0.0000000   0.2500000), wk =   0.1875000
        k(    3) = (   0.0000000   0.0000000  -0.5000000), wk =   0.0937500
        k(    4) = (   0.0000000   0.2500000   0.2500000), wk =   0.3750000
        k(    5) = (   0.0000000   0.2500000  -0.5000000), wk =   0.3750000
        k(    6) = (   0.0000000  -0.5000000  -0.5000000), wk =   0.0937500
        k(    7) = (   0.2500000   0.2500000   0.2500000), wk =   0.2500000
        k(    8) = (   0.2500000   0.2500000  -0.5000000), wk =   0.3750000
        k(    9) = (   0.2500000  -0.5000000  -0.5000000), wk =   0.1875000
        k(   10) = (  -0.5000000  -0.5000000  -0.5000000), wk =   0.0312500

     Dense  grid:    57747 G-vectors     FFT dimensions: (  48,  48,  48)

     Estimated max dynamical RAM per process >     149.01MB

     Subspace diagonalization in iterative solution of the eigenvalue problem:
     a serial algorithm will be used

     Found symmetry operation: I + (  0.0000 -0.5000 -0.5000)
     This is a supercell, fractional translations are disabled
 
     G-vector sticks info
     --------------------
     sticks:   dense  smooth     PW     G-vecs:    dense   smooth      PW
     Sum        1789    1789    517                57747    57747    8925
 


     bravais-lattice index     =            0
     lattice parameter (alat)  =      10.6492  a.u.
     unit-cell volume          =    1207.6685 (a.u.)^3
     number of atoms/cell      =           12
     number of atomic types    =            2
     number of electrons       =        80.00
     number of Kohn-Sham states=           48
     kinetic-energy cutoff     =      50.0000  Ry
     charge density cutoff     =     200.0000  Ry
     convergence threshold     =      1.0E-06
     mixing beta               =       0.7000
     number of iterations used =            8  plain     mixing
     Exchange-correlation      = PBE ( 1  4  3  4 0 0)
     nstep                     =          150


     celldm(1)=  10.649174  celldm(2)=   0.000000  celldm(3)=   0.000000
     celldm(4)=   0.000000  celldm(5)=   0.000000  celldm(6)=   0.000000

     crystal axes: (cart. coord. in units of alat)
               a(1) = (   1.000000   0.000000   0.000000 )  
               a(2) = (   0.000000   1.000000   0.000000 )  
               a(3) = (   0.000000   0.000000   1.000000 )  

     reciprocal axes: (cart. coord. in units 2 pi/alat)
               b(1) = (  1.000000  0.000000  0.000000 )  
               b(2) = (  0.000000  1.000000  0.000000 )  
               b(3) = (  0.000000  0.000000  1.000000 )  


     PseudoPot. # 1 for Gd read from file:
     /home/shaharpit/AcHProject/meam_fit/dft/qe_potentials/Gd.GGA-PBE-paw-v1.0.UPF
     MD5 check sum: 3e8e0d208da550914ae52eaf991d13de
     Pseudo is Projector augmented-wave + core cor, Zval = 18.0
     Generated using ATOMPAW code
     Shape of augmentation charge: BESSEL
     Using radial grid of 1110 points,  8 beta functions with: 
                l(1) =   0
                l(2) =   0
                l(3) =   1
                l(4) =   1
                l(5) =   2
                l(6) =   2
                l(7) =   3
                l(8) =   3
     Q(r) pseudized with 0 coefficients 


     PseudoPot. # 2 for  H read from file:
     /home/shaharpit/AcHProject/meam_fit/dft/qe_potentials/H.pbe-rrkjus_psl.1.0.0.UPF
     MD5 check sum: f52b6d4d1c606e5624b1dc7b2218f220
     Pseudo is Ultrasoft, Zval =  1.0
     Generated using "atomic" code by A. Dal Corso  v.5.1
     Using radial grid of  929 points,  2 beta functions with: 
                l(1) =   0
                l(2) =   0
     Q(r) pseudized with 0 coefficients 


     atomic species   valence    mass     pseudopotential
        Gd            18.00   157.25000     Gd( 1.00)
        H              1.00     1.00794      H( 1.00)

     48 Sym. Ops., with inversion, found



   Cartesian axes

     site n.     atom                  positions (alat units)
         1           Gd  tau(   1) = (   0.0000000   0.0000000   0.0000000  )
         2           Gd  tau(   2) = (   0.0000000   0.5000000   0.5000000  )
         3           Gd  tau(   3) = (   0.5000000   0.0000000   0.5000000  )
         4           Gd  tau(   4) = (   0.5000000   0.5000000   0.0000000  )
         5           H   tau(   5) = (   0.2500000   0.2500000   0.2500000  )
         6           H   tau(   6) = (   0.2500000   0.7500000   0.7500000  )
         7           H   tau(   7) = (   0.7500000   0.2500000   0.7500000  )
         8           H   tau(   8) = (   0.7500000   0.7500000   0.2500000  )
         9           H   tau(   9) = (   0.2500000   0.7500000   0.2500000  )
        10           H   tau(  10) = (   0.2500000   0.2500000   0.7500000  )
        11           H   tau(  11) = (   0.7500000   0.7500000   0.7500000  )
        12           H   tau(  12) = (   0.7500000   0.2500000   0.2500000  )

     number of k points=    10  gaussian smearing, width (Ry)=  0.0100
                       cart. coord. in units 2pi/alat
        k(    1) = (   0.0000000   0.0000000   0.0000000), wk =   0.0312500
        k(    2) = (   0.0000000   0.0000000   0.2500000), wk =   0.1875000
        k(    3) = (   0.0000000   0.0000000  -0.5000000), wk =   0.0937500
        k(    4) = (   0.0000000   0.2500000   0.2500000), wk =   0.3750000
        k(    5) = (   0.0000000   0.2500000  -0.5000000), wk =   0.3750000
        k(    6) = (   0.0000000  -0.5000000  -0.5000000), wk =   0.0937500
        k(    7) = (   0.2500000   0.2500000   0.2500000), wk =   0.2500000
        k(    8) = (   0.2500000   0.2500000  -0.5000000), wk =   0.3750000
        k(    9) = (   0.2500000  -0.5000000  -0.5000000), wk =   0.1875000
        k(   10) = (  -0.5000000  -0.5000000  -0.5000000), wk =   0.0312500

     Dense  grid:    57747 G-vectors     FFT dimensions: (  48,  48,  48)

     Estimated max dynamical RAM per process >     149.01MB

     Subspace diagonalization in iterative solution of the eigenvalue problem:
     a serial algorithm will be used


     Subspace diagonalization in iterative solution of the eigenvalue problem:
     a serial algorithm will be used

     Found symmetry operation: I + (  0.0000 -0.5000 -0.5000)
     This is a supercell, fractional translations are disabled
     Found symmetry operation: I + (  0.0000 -0.5000 -0.5000)
     This is a supercell, fractional translations are disabled

     Subspace diagonalization in iterative solution of the eigenvalue problem:
     a serial algorithm will be used

 
     G-vector sticks info
     --------------------
     sticks:   dense  smooth     PW     G-vecs:    dense   smooth      PW
     Sum        1789    1789    517                57747    57747    8925
 
 
     G-vector sticks info
     --------------------
     sticks:   dense  smooth     PW     G-vecs:    dense   smooth      PW
     Sum        1789    1789    517                57747    57747    8925
 


     bravais-lattice index     =            0
     lattice parameter (alat)  =      10.6492  a.u.
     unit-cell volume          =    1207.6685 (a.u.)^3


     bravais-lattice index     =            0
     lattice parameter (alat)  =      10.6492  a.u.
     unit-cell volume          =    1207.6685 (a.u.)^3
     number of atoms/cell      =           12
     number of atomic types    =            2
     number of atoms/cell      =           12
     number of atomic types    =            2
     number of electrons       =        80.00
     number of Kohn-Sham states=           48
     number of electrons       =        80.00
     number of Kohn-Sham states=           48
     kinetic-energy cutoff     =      50.0000  Ry
     charge density cutoff     =     200.0000  Ry
     convergence threshold     =      1.0E-06
     mixing beta               =       0.7000
     kinetic-energy cutoff     =      50.0000  Ry
     charge density cutoff     =     200.0000  Ry
     convergence threshold     =      1.0E-06
     mixing beta               =       0.7000
     number of iterations used =            8  plain     mixing
     number of iterations used =            8  plain     mixing
     Exchange-correlation      = PBE ( 1  4  3  4 0 0)
     nstep                     =          150
     Exchange-correlation      = PBE ( 1  4  3  4 0 0)
     nstep                     =          150




     celldm(1)=  10.649174  celldm(2)=   0.000000  celldm(3)=   0.000000
     celldm(1)=  10.649174  celldm(2)=   0.000000  celldm(3)=   0.000000
     celldm(4)=   0.000000  celldm(5)=   0.000000  celldm(6)=   0.000000

     crystal axes: (cart. coord. in units of alat)
     celldm(4)=   0.000000  celldm(5)=   0.000000  celldm(6)=   0.000000

     crystal axes: (cart. coord. in units of alat)
               a(1) = (   1.000000   0.000000   0.000000 )  
               a(2) = (   0.000000   1.000000   0.000000 )  
               a(3) = (   0.000000   0.000000   1.000000 )  

               a(1) = (   1.000000   0.000000   0.000000 )  
               a(2) = (   0.000000   1.000000   0.000000 )  
               a(3) = (   0.000000   0.000000   1.000000 )  

     reciprocal axes: (cart. coord. in units 2 pi/alat)
               b(1) = (  1.000000  0.000000  0.000000 )  
     reciprocal axes: (cart. coord. in units 2 pi/alat)
               b(1) = (  1.000000  0.000000  0.000000 )  
               b(2) = (  0.000000  1.000000  0.000000 )  
               b(3) = (  0.000000  0.000000  1.000000 )  

               b(2) = (  0.000000  1.000000  0.000000 )  
               b(3) = (  0.000000  0.000000  1.000000 )  


     PseudoPot. # 1 for Gd read from file:
     /home/shaharpit/AcHProject/meam_fit/dft/qe_potentials/Gd.GGA-PBE-paw-v1.0.UPF

     PseudoPot. # 1 for Gd read from file:
     /home/shaharpit/AcHProject/meam_fit/dft/qe_potentials/Gd.GGA-PBE-paw-v1.0.UPF
     MD5 check sum: 3e8e0d208da550914ae52eaf991d13de
     MD5 check sum: 3e8e0d208da550914ae52eaf991d13de
     Pseudo is Projector augmented-wave + core cor, Zval = 18.0
     Generated using ATOMPAW code
     Shape of augmentation charge: BESSEL
     Pseudo is Projector augmented-wave + core cor, Zval = 18.0
     Generated using ATOMPAW code
     Shape of augmentation charge: BESSEL
     Using radial grid of 1110 points,  8 beta functions with: 
     Using radial grid of 1110 points,  8 beta functions with: 
                l(1) =   0
                l(2) =   0
                l(3) =   1
                l(4) =   1
                l(5) =   2
                l(1) =   0
                l(2) =   0
                l(3) =   1
                l(4) =   1
                l(5) =   2
[...]
     estimated scf accuracy    <       0.00020097 Ry

     iteration #240     ecut=    50.00 Ry     beta=0.70
     Davidson diagonalization with overlap
     ethr =  1.93E-09,  avg # of iterations =  1.0

     total cpu time spent up to now is     2316.4 secs

     total energy              =   -2743.67261483 Ry
     Harris-Foulkes estimate   =   -2743.67261484 Ry
     estimated scf accuracy    <       0.00000239 Ry

     iteration #244     ecut=    50.00 Ry     beta=0.70
     Davidson diagonalization with overlap
     ethr =  1.93E-09,  avg # of iterations =  1.0
     ethr =  1.93E-09,  avg # of iterations =  1.0
     ethr =  1.93E-09,  avg # of iterations =  1.0
     ethr =  9.15E-09,  avg # of iterations =  6.6
     ethr =  5.64E-09,  avg # of iterations =  3.5
     ethr =  9.15E-09,  avg # of iterations =  3.3
     ethr =  9.15E-09,  avg # of iterations =  2.7
     ethr =  5.64E-09,  avg # of iterations =  3.5
     ethr =  1.93E-09,  avg # of iterations =  1.0
     ethr =  1.93E-09,  avg # of iterations =  1.0

     total cpu time spent up to now is     2320.1 secs

     total energy              =   -2743.67261481 Ry
     Harris-Foulkes estimate   =   -2743.67261484 Ry
     estimated scf accuracy    <       0.00000298 Ry

     iteration #245     ecut=    50.00 Ry     beta=0.70
     Davidson diagonalization with overlap
     ethr =  1.93E-09,  avg # of iterations =  1.0

     total cpu time spent up to now is     2320.5 secs

     total energy              =   -2743.67261481 Ry
     Harris-Foulkes estimate   =   -2743.67261484 Ry
     estimated scf accuracy    <       0.00000298 Ry

     iteration #245     ecut=    50.00 Ry     beta=0.70
     Davidson diagonalization with overlap

     total cpu time spent up to now is     2320.8 secs

     End of self-consistent calculation

          k = 0.0000 0.0000 0.0000 (  7123 PWs)   bands (ev):

   -33.7473 -33.7186 -33.7186 -33.7186 -11.9403 -11.9403 -11.9403 -11.6971
   -11.6971 -11.6971 -11.6971 -11.6971 -11.6971 -11.5744 -11.5744 -11.5744
     1.9867   4.7426   4.7426   4.7426   5.5233   5.5233   5.5233   6.9777
     7.8146   7.8146   7.8147   8.4905   8.4905   8.4905   8.4907   8.4907
     8.4907   8.4968   8.4968   8.4968   8.6061   8.6061   8.6061   8.6624
     8.6624   8.6624   8.7440   8.7440   8.7440   8.7442   8.7442   8.7442

          k = 0.0000 0.0000 0.2500 (  7196 PWs)   bands (ev):

   -33.7431 -33.7228 -33.7186 -33.7186 -11.9057 -11.9057 -11.8908 -11.7337
   -11.7337 -11.6989 -11.6988 -11.6793 -11.6793 -11.6324 -11.5925 -11.5925
     2.3555   4.6868   4.8545   4.8545   4.9750   5.4066   5.4066   6.5077
     8.1357   8.1357   8.3492   8.4917   8.4917   8.4958   8.4958   8.5007
     8.5008   8.5014   8.5014   8.5108   8.5807   8.5807   8.5878   8.6465
     8.6747   8.6747   8.7328   8.7328   8.7549   8.7549   8.7662   8.7663

          k = 0.0000 0.0000-0.5000 (  7224 PWs)   bands (ev):

   -33.7330 -33.7330 -33.7186 -33.7186 -11.8206 -11.8206 -11.8206 -11.8206
   -11.7658 -11.7658 -11.7006 -11.7005 -11.6361 -11.6361 -11.6361 -11.6361
     3.3597   3.3597   5.1282   5.1282   5.1282   5.1282   5.6316   5.6316
     8.4314   8.4316   8.4937   8.4937   8.4938   8.4938   8.5342   8.5342
     8.5343   8.5343   8.5472   8.5473   8.5740   8.5741   8.5917   8.5918
     8.7044   8.7044   8.7045   8.7045   8.7886   8.7886   8.7887   8.7887

          k = 0.0000 0.2500 0.2500 (  7211 PWs)   bands (ev):

   -33.7395 -33.7222 -33.7222 -33.7192 -11.8784 -11.8784 -11.8733 -11.7821
   -11.7133 -11.7133 -11.6982 -11.6731 -11.6731 -11.6721 -11.6135 -11.5851
     2.6825   4.7282   4.7282   4.8364   5.0423   5.0423   5.3481   6.1912
     8.3565   8.4276   8.4276   8.4961   8.5003   8.5005   8.5061   8.5062
     8.5076   8.5253   8.5321   8.5321   8.5451   8.5622   8.5934   8.6352
     8.6862   8.6900   8.7431   8.7433   8.7450   8.7451   8.7545   8.8119

          k = 0.0000 0.2500-0.5000 (  7198 PWs)   bands (ev):

   -33.7309 -33.7309 -33.7207 -33.7207 -11.8406 -11.8406 -11.8006 -11.8005
   -11.7941 -11.7941 -11.6637 -11.6637 -11.6636 -11.6636 -11.6195 -11.6195
     3.5718   3.5718   4.7941   4.7941   5.1995   5.1995   5.5556   5.5556
     8.4471   8.4472   8.4978   8.4979   8.5057   8.5058   8.5167   8.5168
     8.5264   8.5265   8.5605   8.5606   8.5942   8.5944   8.5997   8.5998
     8.7148   8.7149   8.7200   8.7201   8.7620   8.7621   8.7734   8.7735

          k = 0.0000-0.5000-0.5000 (  7248 PWs)   bands (ev):

   -33.7258 -33.7258 -33.7258 -33.7258 -11.8415 -11.8415 -11.8415 -11.8414
   -11.7294 -11.7293 -11.7293 -11.7293 -11.6214 -11.6214 -11.6214 -11.6213
     4.1289   4.1289   4.1289   4.1289   5.3751   5.3751   5.3751   5.3751
     8.4740   8.4740   8.4740   8.4743   8.5101   8.5101   8.5102   8.5104
     8.5514   8.5514   8.5514   8.5516   8.6026   8.6026   8.6026   8.6028
     8.7425   8.7425   8.7426   8.7428   8.7466   8.7466   8.7466   8.7469

          k = 0.2500 0.2500 0.2500 (  7199 PWs)   bands (ev):

   -33.7366 -33.7222 -33.7222 -33.7222 -11.8868 -11.8868 -11.8867 -11.7655
   -11.7196 -11.7196 -11.7196 -11.6594 -11.6593 -11.6593 -11.5979 -11.5979
     2.9519   4.5579   4.5579   4.5579   5.2474   5.2474   5.2474   5.9845
     8.4540   8.4541   8.4541   8.4905   8.4905   8.4905   8.5319   8.5319
     8.5370   8.5370   8.5372   8.5637   8.5637   8.5638   8.6081   8.6270
     8.7001   8.7001   8.7471   8.7472   8.7472   8.7559   8.7559   8.7559

          k = 0.2500 0.2500-0.5000 (  7248 PWs)   bands (ev):

   -33.7294 -33.7294 -33.7222 -33.7222 -11.8950 -11.8950 -11.8529 -11.8529
   -11.7223 -11.7223 -11.6494 -11.6494 -11.6333 -11.6332 -11.6287 -11.6286
     3.6794   3.6794   4.4575   4.4575   5.3818   5.3818   5.5565   5.5565
     8.4600   8.4602   8.4890   8.4891   8.5020   8.5022   8.5026   8.5027
     8.5478   8.5480   8.5840   8.5841   8.6046   8.6047   8.6055   8.6057
     8.7262   8.7263   8.7289   8.7290   8.7577   8.7579   8.7631   8.7632

          k = 0.2500-0.5000-0.5000 (  7220 PWs)   bands (ev):

   -33.7258 -33.7258 -33.7258 -33.7258 -11.9062 -11.9062 -11.9062 -11.9061
   -11.6630 -11.6630 -11.6630 -11.6629 -11.6213 -11.6213 -11.6213 -11.6212
     3.9948   3.9948   3.9948   3.9948   5.5220   5.5220   5.5220   5.5221
     8.4794   8.4794   8.4794   8.4797   8.4934   8.4934   8.4935   8.4937
     8.5841   8.5841   8.5841   8.5844   8.6101   8.6101   8.6101   8.6103
     8.7468   8.7468   8.7469   8.7471   8.7492   8.7492   8.7492   8.7495

          k =-0.5000-0.5000-0.5000 (  7208 PWs)   bands (ev):

   -33.7258 -33.7257 -33.7257 -33.7257 -11.9463 -11.9463 -11.9463 -11.9462
   -11.6211 -11.6211 -11.6211 -11.6211 -11.6211 -11.6211 -11.6211 -11.6211
     3.8828   3.8828   3.8828   3.8828   5.6472   5.6472   5.6472   5.6472
     8.4845   8.4845   8.4845   8.4846   8.4846   8.4846   8.4848   8.4848
     8.6100   8.6100   8.6100   8.6102   8.6163   8.6163   8.6163   8.6165
     8.7528   8.7528   8.7528   8.7529   8.7529   8.7529   8.7531   8.7531

     the Fermi energy is     8.6639 ev

!    total energy              =   -2743.67261462 Ry
     Harris-Foulkes estimate   =   -2743.67261483 Ry
     estimated scf accuracy    <       0.00000017 Ry

     The total energy is the sum of the following terms:

     one-electron contribution =    -489.83247579 Ry
     hartree contribution      =     289.06140606 Ry
     xc contribution           =     -95.73138976 Ry
     ewald contribution        =    -583.92658022 Ry
     one-center paw contrib.   =   -1863.17483594 Ry
     smearing contrib. (-TS)   =      -0.06873896 Ry

     convergence has been achieved in 245 iterations

     total cpu time spent up to now is     2320.9 secs

     End of self-consistent calculation

          k = 0.0000 0.0000 0.0000 (  7123 PWs)   bands (ev):

   -33.7473 -33.7186 -33.7186 -33.7186 -11.9403 -11.9403 -11.9403 -11.6971
   -11.6971 -11.6971 -11.6971 -11.6971 -11.6971 -11.5744 -11.5744 -11.5744
     1.9867   4.7426   4.7426   4.7426   5.5233   5.5233   5.5233   6.9777
     7.8146   7.8146   7.8147   8.4905   8.4905   8.4905   8.4907   8.4907
     8.4907   8.4968   8.4968   8.4968   8.6061   8.6061   8.6061   8.6624
     8.6624   8.6624   8.7440   8.7440   8.7440   8.7442   8.7442   8.7442

          k = 0.0000 0.0000 0.2500 (  7196 PWs)   bands (ev):

   -33.7431 -33.7228 -33.7186 -33.7186 -11.9057 -11.9057 -11.8908 -11.7337
   -11.7337 -11.6989 -11.6988 -11.6793 -11.6793 -11.6324 -11.5925 -11.5925
     2.3555   4.6868   4.8545   4.8545   4.9750   5.4066   5.4066   6.5077
     8.1357   8.1357   8.3492   8.4917   8.4917   8.4958   8.4958   8.5007
     8.5008   8.5014   8.5014   8.5108   8.5807   8.5807   8.5878   8.6465
     8.6747   8.6747   8.7328   8.7328   8.7549   8.7549   8.7662   8.7663

          k = 0.0000 0.0000-0.5000 (  7224 PWs)   bands (ev):

   -33.7330 -33.7330 -33.7186 -33.7186 -11.8206 -11.8206 -11.8206 -11.8206
   -11.7658 -11.7658 -11.7006 -11.7005 -11.6361 -11.6361 -11.6361 -11.6361
     3.3597   3.3597   5.1282   5.1282   5.1282   5.1282   5.6316   5.6316
     8.4314   8.4316   8.4937   8.4937   8.4938   8.4938   8.5342   8.5342
     8.5343   8.5343   8.5472   8.5473   8.5740   8.5741   8.5917   8.5918
     8.7044   8.7044   8.7045   8.7045   8.7886   8.7886   8.7887   8.7887

          k = 0.0000 0.2500 0.2500 (  7211 PWs)   bands (ev):

   -33.7395 -33.7222 -33.7222 -33.7192 -11.8784 -11.8784 -11.8733 -11.7821
   -11.7133 -11.7133 -11.6982 -11.6731 -11.6731 -11.6721 -11.6135 -11.5851
     2.6825   4.7282   4.7282   4.8364   5.0423   5.0423   5.3481   6.1912
     8.3565   8.4276   8.4276   8.4961   8.5003   8.5005   8.5061   8.5062
     8.5076   8.5253   8.5321   8.5321   8.5451   8.5622   8.5934   8.6352
     8.6862   8.6900   8.7431   8.7433   8.7450   8.7451   8.7545   8.8119

          k = 0.0000 0.2500-0.5000 (  7198 PWs)   bands (ev):

   -33.7309 -33.7309 -33.7207 -33.7207 -11.8406 -11.8406 -11.8006 -11.8005
   -11.7941 -11.7941 -11.6637 -11.6637 -11.6636 -11.6636 -11.6195 -11.6195
     3.5718   3.5718   4.7941   4.7941   5.1995   5.1995   5.5556   5.5556
     8.4471   8.4472   8.4978   8.4979   8.5057   8.5058   8.5167   8.5168
     8.5264   8.5265   8.5605   8.5606   8.5942   8.5944   8.5997   8.5998
     8.7148   8.7149   8.7200   8.7201   8.7620   8.7621   8.7734   8.7735

          k = 0.0000-0.5000-0.5000 (  7248 PWs)   bands (ev):

   -33.7258 -33.7258 -33.7258 -33.7258 -11.8415 -11.8415 -11.8415 -11.8414
   -11.7294 -11.7293 -11.7293 -11.7293 -11.6214 -11.6214 -11.6214 -11.6213
     4.1289   4.1289   4.1289   4.1289   5.3751   5.3751   5.3751   5.3751
     8.4740   8.4740   8.4740   8.4743   8.5101   8.5101   8.5102   8.5104
     8.5514   8.5514   8.5514   8.5516   8.6026   8.6026   8.6026   8.6028
     8.7425   8.7425   8.7426   8.7428   8.7466   8.7466   8.7466   8.7469

          k = 0.2500 0.2500 0.2500 (  7199 PWs)   bands (ev):

   -33.7366 -33.7222 -33.7222 -33.7222 -11.8868 -11.8868 -11.8867 -11.7655
   -11.7196 -11.7196 -11.7196 -11.6594 -11.6593 -11.6593 -11.5979 -11.5979
     2.9519   4.5579   4.5579   4.5579   5.2474   5.2474   5.2474   5.9845
     8.4540   8.4541   8.4541   8.4905   8.4905   8.4905   8.5319   8.5319
     8.5370   8.5370   8.5372   8.5637   8.5637   8.5638   8.6081   8.6270
     8.7001   8.7001   8.7471   8.7472   8.7472   8.7559   8.7559   8.7559

          k = 0.2500 0.2500-0.5000 (  7248 PWs)   bands (ev):

   -33.7294 -33.7294 -33.7222 -33.7222 -11.8950 -11.8950 -11.8529 -11.8529
   -11.7223 -11.7223 -11.6494 -11.6494 -11.6333 -11.6332 -11.6287 -11.6286
     3.6794   3.6794   4.4575   4.4575   5.3818   5.3818   5.5565   5.5565
     8.4600   8.4602   8.4890   8.4891   8.5020   8.5022   8.5026   8.5027
     8.5478   8.5480   8.5840   8.5841   8.6046   8.6047   8.6055   8.6057
     8.7262   8.7263   8.7289   8.7290   8.7577   8.7579   8.7631   8.7632

          k = 0.2500-0.5000-0.5000 (  7220 PWs)   bands (ev):

   -33.7258 -33.7258 -33.7258 -33.7258 -11.9062 -11.9062 -11.9062 -11.9061
   -11.6630 -11.6630 -11.6630 -11.6629 -11.6213 -11.6213 -11.6213 -11.6212
     3.9948   3.9948   3.9948   3.9948   5.5220   5.5220   5.5220   5.5221
     8.4794   8.4794   8.4794   8.4797   8.4934   8.4934   8.4935   8.4937
     8.5841   8.5841   8.5841   8.5844   8.6101   8.6101   8.6101   8.6103
     8.7468   8.7468   8.7469   8.7471   8.7492   8.7492   8.7492   8.7495

          k =-0.5000-0.5000-0.5000 (  7208 PWs)   bands (ev):

   -33.7258 -33.7257 -33.7257 -33.7257 -11.9463 -11.9463 -11.9463 -11.9462
   -11.6211 -11.6211 -11.6211 -11.6211 -11.6211 -11.6211 -11.6211 -11.6211
     3.8828   3.8828   3.8828   3.8828   5.6472   5.6472   5.6472   5.6472
     8.4845   8.4845   8.4845   8.4846   8.4846   8.4846   8.4848   8.4848
     8.6100   8.6100   8.6100   8.6102   8.6163   8.6163   8.6163   8.6165
     8.7528   8.7528   8.7528   8.7529   8.7529   8.7529   8.7531   8.7531

     the Fermi energy is     8.6639 ev

!    total energy              =   -2743.67261462 Ry
     Harris-Foulkes estimate   =   -2743.67261483 Ry
     estimated scf accuracy    <       0.00000017 Ry

     The total energy is the sum of the following terms:

     one-electron contribution =    -489.83247579 Ry
     hartree contribution      =     289.06140606 Ry
     xc contribution           =     -95.73138976 Ry
     ewald contribution        =    -583.92658022 Ry
     one-center paw contrib.   =   -1863.17483594 Ry
     smearing contrib. (-TS)   =      -0.06873896 Ry

     convergence has been achieved in 245 iterations
     ethr =  1.93E-09,  avg # of iterations =  1.0

     total cpu time spent up to now is     2321.1 secs

     total energy              =   -2743.67261316 Ry
     Harris-Foulkes estimate   =   -2743.67261449 Ry
     estimated scf accuracy    <       0.00000451 Ry

     iteration #241     ecut=    50.00 Ry     beta=0.70
     Davidson diagonalization with overlap
     ethr =  1.93E-09,  avg # of iterations =  1.0

     total cpu time spent up to now is     2321.3 secs

     total energy              =   -2743.67261447 Ry
     Harris-Foulkes estimate   =   -2743.67261472 Ry
     estimated scf accuracy    <       0.00000154 Ry

     iteration #242     ecut=    50.00 Ry     beta=0.70
     Davidson diagonalization with overlap

     total cpu time spent up to now is     2321.4 secs

     total energy              =   -2743.67260013 Ry
     Harris-Foulkes estimate   =   -2743.67260278 Ry
     estimated scf accuracy    <       0.00064676 Ry

     iteration #238     ecut=    50.00 Ry     beta=0.70
     Davidson diagonalization with overlap
     ethr =  1.93E-09,  avg # of iterations =  1.0

     total cpu time spent up to now is     2321.6 secs

     total energy              =   -2743.67259550 Ry
     Harris-Foulkes estimate   =   -2743.67261004 Ry
     estimated scf accuracy    <       0.00020097 Ry

     iteration #240     ecut=    50.00 Ry     beta=0.70
     Davidson diagonalization with overlap

     total cpu time spent up to now is     2321.8 secs

     total energy              =   -2743.67261447 Ry
     Harris-Foulkes estimate   =   -2743.67261472 Ry
     estimated scf accuracy    <       0.00000154 Ry

     iteration #242     ecut=    50.00 Ry     beta=0.70
     Davidson diagonalization with overlap

     total cpu time spent up to now is     2322.7 secs

     total energy              =   -2743.67261481 Ry
     Harris-Foulkes estimate   =   -2743.67261484 Ry
     estimated scf accuracy    <       0.00000298 Ry

     iteration #245     ecut=    50.00 Ry     beta=0.70
     Davidson diagonalization with overlap

     Forces acting on atoms (cartesian axes, Ry/au):

     atom    1 type  1   force =     0.00000000    0.00000000    0.00000000
     atom    2 type  1   force =     0.00000000    0.00000000    0.00000000
     atom    3 type  1   force =     0.00000000   -0.00000000    0.00000000
     atom    4 type  1   force =     0.00000000   -0.00000000    0.00000000
     atom    5 type  2   force =    -0.00000274   -0.00000274   -0.00000274
     atom    6 type  2   force =    -0.00000274    0.00000274    0.00000274
     atom    7 type  2   force =     0.00000274   -0.00000274    0.00000274
     atom    8 type  2   force =     0.00000274    0.00000274   -0.00000274
     atom    9 type  2   force =    -0.00000274    0.00000274   -0.00000274
     atom   10 type  2   force =    -0.00000274   -0.00000274    0.00000274
     atom   11 type  2   force =     0.00000274    0.00000274    0.00000274
     atom   12 type  2   force =     0.00000274   -0.00000274   -0.00000274

     Total force =     0.000013     Total SCF correction =     0.000137
     SCF correction compared to forces is large: reduce conv_thr to get better values

     BFGS Geometry Optimization

     bfgs converged in   1 scf cycles and   0 bfgs steps
     (criteria: energy <  1.0E-04 Ry, force <  1.0E-03 Ry/Bohr)

     End of BFGS Geometry Optimization

     Final energy   =   -2743.6726146185 Ry
Begin final coordinates

ATOMIC_POSITIONS (crystal)
Gd       0.000000000   0.000000000   0.000000000
Gd       0.000000000   0.500000000   0.500000000
Gd       0.500000000   0.000000000   0.500000000
Gd       0.500000000   0.500000000   0.000000000
H        0.250000000   0.250000000   0.250000000
H        0.250000000   0.750000000   0.750000000
H        0.750000000   0.250000000   0.750000000
H        0.750000000   0.750000000   0.250000000
H        0.250000000   0.750000000   0.250000000
H        0.250000000   0.250000000   0.750000000
H        0.750000000   0.750000000   0.750000000
H        0.750000000   0.250000000   0.250000000
End final coordinates



     Writing output data file 2249.save

     Forces acting on atoms (cartesian axes, Ry/au):

     atom    1 type  1   force =     0.00000000    0.00000000    0.00000000
     atom    2 type  1   force =     0.00000000    0.00000000    0.00000000
     atom    3 type  1   force =     0.00000000   -0.00000000    0.00000000
     atom    4 type  1   force =     0.00000000   -0.00000000    0.00000000
     atom    5 type  2   force =    -0.00000274   -0.00000274   -0.00000274
     atom    6 type  2   force =    -0.00000274    0.00000274    0.00000274
     atom    7 type  2   force =     0.00000274   -0.00000274    0.00000274
     atom    8 type  2   force =     0.00000274    0.00000274   -0.00000274
     atom    9 type  2   force =    -0.00000274    0.00000274   -0.00000274
     atom   10 type  2   force =    -0.00000274   -0.00000274    0.00000274
     atom   11 type  2   force =     0.00000274    0.00000274    0.00000274
     atom   12 type  2   force =     0.00000274   -0.00000274   -0.00000274

     Total force =     0.000013     Total SCF correction =     0.000137
     SCF correction compared to forces is large: reduce conv_thr to get better values

     BFGS Geometry Optimization

     bfgs converged in   1 scf cycles and   0 bfgs steps
     (criteria: energy <  1.0E-04 Ry, force <  1.0E-03 Ry/Bohr)

     End of BFGS Geometry Optimization

     Final energy   =   -2743.6726146185 Ry
Begin final coordinates

ATOMIC_POSITIONS (crystal)
Gd       0.000000000   0.000000000   0.000000000
Gd       0.000000000   0.500000000   0.500000000
Gd       0.500000000   0.000000000   0.500000000
Gd       0.500000000   0.500000000   0.000000000
H        0.250000000   0.250000000   0.250000000
H        0.250000000   0.750000000   0.750000000
H        0.750000000   0.250000000   0.750000000
H        0.750000000   0.750000000   0.250000000
H        0.250000000   0.750000000   0.250000000
H        0.250000000   0.250000000   0.750000000
H        0.750000000   0.750000000   0.750000000
H        0.750000000   0.250000000   0.250000000
End final coordinates



     Writing output data file 2249.save

     total cpu time spent up to now is     2323.0 secs

     total energy              =   -2743.67261481 Ry
     Harris-Foulkes estimate   =   -2743.67261484 Ry
     estimated scf accuracy    <       0.00000298 Ry

     iteration #245     ecut=    50.00 Ry     beta=0.70
     Davidson diagonalization with overlap
