
     Program PWSCF v.6.1 (svn rev. 13369) starts on 30Nov2022 at 11:36:57 

     This program is part of the open-source Quantum ESPRESSO suite
     for quantum simulation of materials; please cite
         "P. Giannozzi et al., J. Phys.:Condens. Matter 21 395502 (2009);
          URL http://www.quantum-espresso.org", 
     in publications or presentations arising from this work. More details at
     http://www.quantum-espresso.org/quote

     Parallel version (MPI), running on     8 processors
     R & G space division:  proc/nbgrp/npool/nimage =       8
     Reading input from ./GdH2_1.1.in
Warning: card &IONS ignored
Warning: card 	ION_DYNAMICS='BFGS', ignored
Warning: card / ignored
Warning: card &CELL ignored
Warning: card / ignored

     Current dimensions of program PWSCF are:
     Max number of different atomic species (ntypx) = 10
     Max number of k-points (npk) =  40000
     Max angular momentum in pseudopotentials (lmaxx) =  3
               file Gd.rel-pbe-spdn-kjpaw_psl.1.0.0.UPF: wavefunction(s)  5P 5P renormalized
               file H.pbe-kjpaw_psl.0.1.UPF: wavefunction(s)  1S renormalized

     Subspace diagonalization in iterative solution of the eigenvalue problem:
     a serial algorithm will be used

     Found symmetry operation: I + (  0.0000 -0.5000 -0.5000)
     This is a supercell, fractional translations are disabled
 
     Parallelization info
     --------------------
     sticks:   dense  smooth     PW     G-vecs:    dense   smooth      PW
     Min         212     212     61                 6614     6614    1027
     Max         213     213     62                 6617     6617    1028
     Sum        1701    1701    489                52923    52923    8217
 


     bravais-lattice index     =            0
     lattice parameter (alat)  =      10.3447  a.u.
     unit-cell volume          =    1107.0280 (a.u.)^3
     number of atoms/cell      =           12
     number of atomic types    =            2
     number of electrons       =        52.00
     number of Kohn-Sham states=           62
     kinetic-energy cutoff     =      50.0000  Ry
     charge density cutoff     =     200.0000  Ry
     convergence threshold     =      1.0E-06
     mixing beta               =       0.7000
     number of iterations used =            8  plain     mixing
     Exchange-correlation      =  SLA  PW   PBX  PBC ( 1  4  3  4 0 0)
     Non magnetic calculation with spin-orbit


     celldm(1)=  10.344739  celldm(2)=   0.000000  celldm(3)=   0.000000
     celldm(4)=   0.000000  celldm(5)=   0.000000  celldm(6)=   0.000000

     crystal axes: (cart. coord. in units of alat)
               a(1) = (   1.000000   0.000000   0.000000 )  
               a(2) = (   0.000000   1.000000   0.000000 )  
               a(3) = (   0.000000   0.000000   1.000000 )  

     reciprocal axes: (cart. coord. in units 2 pi/alat)
               b(1) = (  1.000000  0.000000  0.000000 )  
               b(2) = (  0.000000  1.000000  0.000000 )  
               b(3) = (  0.000000  0.000000  1.000000 )  


     PseudoPot. # 1 for Gd read from file:
     /home/shaharpit/MeamGdH/dft/qe_potentials/Gd.rel-pbe-spdn-kjpaw_psl.1.0.0.UPF
     MD5 check sum: cf50ec46d1536b4a0251694df1946a53
     Pseudo is Projector augmented-wave + core cor, Zval = 11.0
     Generated using "atomic" code by A. Dal Corso  v.6.2.2
     Shape of augmentation charge: PSQ
     Using radial grid of 1263 points, 10 beta functions with: 
                l(1) =   0
                l(2) =   0
                l(3) =   1
                l(4) =   1
                l(5) =   1
                l(6) =   1
                l(7) =   2
                l(8) =   2
                l(9) =   2
               l(10) =   2
     Q(r) pseudized with 0 coefficients 


     PseudoPot. # 2 for  H read from file:
     /home/shaharpit/MeamGdH/dft/qe_potentials/H.pbe-kjpaw_psl.0.1.UPF
     MD5 check sum: fbb168fef676c0aaadbafd73f5b1efa8
     Pseudo is Projector augmented-wave, Zval =  1.0
     Generated using "atomic" code by A. Dal Corso  v.5.0.2 svn rev. 9415
     Shape of augmentation charge: PSQ
     Using radial grid of  929 points,  2 beta functions with: 
                l(1) =   0
                l(2) =   0
     Q(r) pseudized with 0 coefficients 


     atomic species   valence    mass     pseudopotential
        Gd            11.00   157.25000     Gd( 1.00)
        H              1.00     1.00794      H( 1.00)

     48 Sym. Ops., with inversion, found



   Cartesian axes

     site n.     atom                  positions (alat units)
         1           Gd  tau(   1) = (   0.0000000   0.0000000   0.0000000  )
         2           Gd  tau(   2) = (   0.0000000   0.5000000   0.5000000  )
         3           Gd  tau(   3) = (   0.5000000   0.0000000   0.5000000  )
         4           Gd  tau(   4) = (   0.5000000   0.5000000   0.0000000  )
         5           H   tau(   5) = (   0.2500000   0.2500000   0.2500000  )
         6           H   tau(   6) = (   0.2500000   0.7500000   0.7500000  )
         7           H   tau(   7) = (   0.7500000   0.2500000   0.7500000  )
         8           H   tau(   8) = (   0.7500000   0.7500000   0.2500000  )
         9           H   tau(   9) = (   0.2500000   0.7500000   0.2500000  )
        10           H   tau(  10) = (   0.2500000   0.2500000   0.7500000  )
        11           H   tau(  11) = (   0.7500000   0.7500000   0.7500000  )
        12           H   tau(  12) = (   0.7500000   0.2500000   0.2500000  )

     number of k points=    10  gaussian smearing, width (Ry)=  0.0100
                       cart. coord. in units 2pi/alat
        k(    1) = (   0.0000000   0.0000000   0.0000000), wk =   0.0156250
        k(    2) = (   0.0000000   0.0000000   0.2500000), wk =   0.0937500
        k(    3) = (   0.0000000   0.0000000  -0.5000000), wk =   0.0468750
        k(    4) = (   0.0000000   0.2500000   0.2500000), wk =   0.1875000
        k(    5) = (   0.0000000   0.2500000  -0.5000000), wk =   0.1875000
        k(    6) = (   0.0000000  -0.5000000  -0.5000000), wk =   0.0468750
        k(    7) = (   0.2500000   0.2500000   0.2500000), wk =   0.1250000
        k(    8) = (   0.2500000   0.2500000  -0.5000000), wk =   0.1875000
        k(    9) = (   0.2500000  -0.5000000  -0.5000000), wk =   0.0937500
        k(   10) = (  -0.5000000  -0.5000000  -0.5000000), wk =   0.0156250

     Dense  grid:    52923 G-vectors     FFT dimensions: (  48,  48,  48)

     Estimated max dynamical RAM per process >      45.12MB

     Estimated total allocated dynamical RAM >     360.92MB

     Check: negative/imaginary core charge=   -0.000002    0.000000

     Initial potential from superposition of free atoms

     starting charge   51.92374, renormalised to   52.00000
     Starting wfc are  120 randomized atomic wfcs
     Checking if some PAW data can be deallocated... 

     total cpu time spent up to now is        4.2 secs

     per-process dynamical memory:    82.5 Mb

     Self-consistent Calculation

     iteration #  1     ecut=    50.00 Ry     beta=0.70
     Davidson diagonalization with overlap
     ethr =  1.00E-02,  avg # of iterations =  2.0

     total cpu time spent up to now is        7.1 secs

     total energy              =   -2248.28172181 Ry
     Harris-Foulkes estimate   =   -2248.60800425 Ry
     estimated scf accuracy    <       0.56608412 Ry

     iteration #  2     ecut=    50.00 Ry     beta=0.70
     Davidson diagonalization with overlap
     ethr =  1.09E-03,  avg # of iterations =  2.8

     total cpu time spent up to now is       10.2 secs

     total energy              =   -2248.38952347 Ry
     Harris-Foulkes estimate   =   -2248.39664807 Ry
     estimated scf accuracy    <       0.01178706 Ry

     iteration #  3     ecut=    50.00 Ry     beta=0.70
     Davidson diagonalization with overlap
     ethr =  2.27E-05,  avg # of iterations =  2.8

     total cpu time spent up to now is       13.6 secs

     total energy              =   -2248.39319792 Ry
     Harris-Foulkes estimate   =   -2248.39314804 Ry
     estimated scf accuracy    <       0.00022459 Ry

     iteration #  4     ecut=    50.00 Ry     beta=0.70
     Davidson diagonalization with overlap
     ethr =  4.32E-07,  avg # of iterations =  3.3

     total cpu time spent up to now is       17.3 secs

     total energy              =   -2248.39328528 Ry
     Harris-Foulkes estimate   =   -2248.39329674 Ry
     estimated scf accuracy    <       0.00002411 Ry

     iteration #  5     ecut=    50.00 Ry     beta=0.70
     Davidson diagonalization with overlap
     ethr =  4.64E-08,  avg # of iterations =  3.2

     total cpu time spent up to now is       20.6 secs

     total energy              =   -2248.39329130 Ry
     Harris-Foulkes estimate   =   -2248.39329324 Ry
     estimated scf accuracy    <       0.00000843 Ry

     iteration #  6     ecut=    50.00 Ry     beta=0.70
     Davidson diagonalization with overlap
     ethr =  1.62E-08,  avg # of iterations =  3.0

     total cpu time spent up to now is       23.8 secs

     total energy              =   -2248.39329308 Ry
     Harris-Foulkes estimate   =   -2248.39329417 Ry
     estimated scf accuracy    <       0.00000214 Ry

     iteration #  7     ecut=    50.00 Ry     beta=0.70
     Davidson diagonalization with overlap
     ethr =  4.12E-09,  avg # of iterations =  2.7

     total cpu time spent up to now is       26.9 secs

     End of self-consistent calculation

          k = 0.0000 0.0000 0.0000 (  6619 PWs)   bands (ev):

   -35.9196 -35.9196 -35.8823 -35.8823 -35.8823 -35.8823 -35.8823 -35.8823
   -16.6782 -16.6782 -16.6782 -16.6782 -16.6782 -16.6782 -16.5216 -16.5216
   -12.5324 -12.5324 -12.5324 -12.5324 -12.5324 -12.5324 -12.3104 -12.3104
   -12.3104 -12.3104 -12.3104 -12.3104 -12.1434 -12.1434 -12.1434 -12.1434
     1.0261   1.0261   3.7667   3.7667   3.7667   3.7667   3.7667   3.7667
     4.9264   4.9264   4.9264   4.9264   4.9264   4.9264   6.8153   6.8153
     6.8153   6.8153   6.8153   6.8153   7.1258   7.1258   9.5414   9.5414
     9.5414   9.5414   9.7005   9.7005  11.8565  11.8565

          k = 0.0000 0.0000 0.2500 (  6595 PWs)   bands (ev):

   -35.9141 -35.9141 -35.8878 -35.8878 -35.8823 -35.8823 -35.8823 -35.8823
   -16.6778 -16.6778 -16.6778 -16.6778 -16.6557 -16.6557 -16.5450 -16.5450
   -12.5116 -12.5116 -12.5116 -12.5116 -12.4803 -12.4803 -12.3361 -12.3361
   -12.3360 -12.3360 -12.2863 -12.2863 -12.2058 -12.2058 -12.1682 -12.1682
     1.4265   1.4265   3.9196   3.9196   3.9196   3.9196   3.9587   3.9587
     4.0406   4.0406   4.7475   4.7475   4.7475   4.7475   6.1046   6.1046
     7.2006   7.2006   7.2006   7.2006   7.7386   7.7386   9.7858   9.7858
     9.9117   9.9117  11.0645  11.0646  11.1083  11.1083

          k = 0.0000 0.0000-0.5000 (  6568 PWs)   bands (ev):

   -35.9010 -35.9010 -35.9009 -35.9009 -35.8823 -35.8823 -35.8823 -35.8823
   -16.6774 -16.6774 -16.6774 -16.6774 -16.6008 -16.6008 -16.6007 -16.6007
   -12.4820 -12.4820 -12.4820 -12.4820 -12.3707 -12.3707 -12.3707 -12.3707
   -12.3482 -12.3482 -12.3482 -12.3482 -12.2276 -12.2276 -12.2276 -12.2276
     2.5141   2.5141   2.5141   2.5141   4.2266   4.2266   4.2266   4.2266
     4.4153   4.4153   4.4153   4.4153   4.8476   4.8476   4.8476   4.8476
     7.7906   7.7906   7.7907   7.7907   9.3646   9.3646   9.3646   9.3647
    10.2832  10.2833  10.2834  10.2835  10.5714  10.5721

          k = 0.0000 0.2500 0.2500 (  6624 PWs)   bands (ev):

   -35.9094 -35.9094 -35.8870 -35.8870 -35.8869 -35.8869 -35.8831 -35.8831
   -16.6746 -16.6746 -16.6590 -16.6590 -16.6590 -16.6590 -16.5651 -16.5651
   -12.4999 -12.4999 -12.4772 -12.4772 -12.4771 -12.4771 -12.3387 -12.3387
   -12.3042 -12.3042 -12.3042 -12.3042 -12.2707 -12.2707 -12.1760 -12.1760
     1.7781   1.7781   3.9318   3.9318   3.9638   3.9638   3.9638   3.9638
     4.1646   4.1646   4.1646   4.1646   4.6524   4.6524   5.6195   5.6195
     7.5499   7.5499   7.9118   7.9118   7.9118   7.9118   9.7772   9.7772
    10.0556  10.0556  11.1422  11.1423  11.2649  11.2649

          k = 0.0000 0.2500-0.5000 (  6610 PWs)   bands (ev):

   -35.8982 -35.8982 -35.8982 -35.8982 -35.8850 -35.8850 -35.8850 -35.8850
   -16.6669 -16.6669 -16.6668 -16.6668 -16.6127 -16.6127 -16.6127 -16.6127
   -12.4799 -12.4799 -12.4799 -12.4799 -12.3840 -12.3840 -12.3840 -12.3840
   -12.3329 -12.3329 -12.3328 -12.3328 -12.2331 -12.2331 -12.2331 -12.2331
     2.7323   2.7323   2.7323   2.7323   3.9623   3.9623   3.9623   3.9623
     4.4166   4.4166   4.4166   4.4166   4.7731   4.7731   4.7731   4.7731
     8.1103   8.1103   8.1104   8.1104   9.2091   9.2092   9.2092   9.2092
    10.6377  10.6379  10.6386  10.6390  10.6823  10.6827

          k = 0.0000-0.5000-0.5000 (  6632 PWs)   bands (ev):

   -35.8916 -35.8916 -35.8916 -35.8916 -35.8916 -35.8916 -35.8916 -35.8916
   -16.6405 -16.6405 -16.6405 -16.6405 -16.6405 -16.6405 -16.6404 -16.6404
   -12.4458 -12.4458 -12.4458 -12.4458 -12.4458 -12.4458 -12.4458 -12.4458
   -12.2699 -12.2699 -12.2699 -12.2699 -12.2699 -12.2699 -12.2699 -12.2699
     3.2995   3.2995   3.2995   3.2995   3.2995   3.2995   3.2995   3.2995
     4.5905   4.5905   4.5905   4.5905   4.5905   4.5905   4.5905   4.5905
     8.7982   8.7982   8.7982   8.7982   8.7982   8.7982   8.7983   8.7983
    10.6723  10.6724  10.6724  10.6724  10.6726  10.6727

          k = 0.2500 0.2500 0.2500 (  6595 PWs)   bands (ev):

   -35.9056 -35.9056 -35.8870 -35.8870 -35.8870 -35.8870 -35.8869 -35.8869
   -16.6595 -16.6595 -16.6595 -16.6595 -16.6595 -16.6595 -16.5820 -16.5820
   -12.4844 -12.4844 -12.4844 -12.4844 -12.4844 -12.4844 -12.3297 -12.3297
   -12.2975 -12.2975 -12.2975 -12.2975 -12.2975 -12.2975 -12.1752 -12.1752
     2.0591   2.0591   3.6950   3.6950   3.6950   3.6950   3.6950   3.6950
     4.4923   4.4923   4.4923   4.4923   4.4923   4.4923   5.3478   5.3478
     8.1361   8.1361   8.1361   8.1361   8.1361   8.1361   9.8210   9.8210
    10.0200  10.0200  10.7917  10.7917  10.7917  10.7917

          k = 0.2500 0.2500-0.5000 (  6608 PWs)   bands (ev):

   -35.8963 -35.8963 -35.8962 -35.8962 -35.8869 -35.8869 -35.8869 -35.8869
   -16.6600 -16.6600 -16.6600 -16.6600 -16.6217 -16.6217 -16.6217 -16.6217
   -12.4912 -12.4912 -12.4912 -12.4912 -12.4237 -12.4237 -12.4237 -12.4237
   -12.2914 -12.2914 -12.2914 -12.2914 -12.2205 -12.2205 -12.2205 -12.2205
     2.8142   2.8142   2.8143   2.8143   3.5660   3.5660   3.5660   3.5660
     4.6793   4.6793   4.6793   4.6793   4.8215   4.8215   4.8215   4.8215
     8.4533   8.4533   8.4533   8.4533   9.3248   9.3248   9.3248   9.3248
    10.1122  10.1122  10.1122  10.1126  10.3577  10.3577

          k = 0.2500-0.5000-0.5000 (  6572 PWs)   bands (ev):

   -35.8916 -35.8916 -35.8916 -35.8916 -35.8916 -35.8916 -35.8915 -35.8915
   -16.6419 -16.6419 -16.6419 -16.6419 -16.6419 -16.6419 -16.6419 -16.6419
   -12.4773 -12.4773 -12.4773 -12.4773 -12.4773 -12.4773 -12.4773 -12.4773
   -12.2345 -12.2345 -12.2345 -12.2345 -12.2345 -12.2345 -12.2345 -12.2345
     3.0920   3.0920   3.0920   3.0920   3.0920   3.0920   3.0920   3.0920
     4.8491   4.8491   4.8491   4.8491   4.8491   4.8491   4.8491   4.8491
     9.1533   9.1533   9.1533   9.1533   9.1533   9.1533   9.1533   9.1534
     9.9907   9.9907   9.9907   9.9907   9.9907   9.9907

          k =-0.5000-0.5000-0.5000 (  6704 PWs)   bands (ev):

   -35.8916 -35.8916 -35.8916 -35.8916 -35.8916 -35.8916 -35.8915 -35.8915
   -16.6434 -16.6434 -16.6434 -16.6434 -16.6434 -16.6434 -16.6433 -16.6433
   -12.5015 -12.5015 -12.5015 -12.5015 -12.5015 -12.5015 -12.5015 -12.5015
   -12.2066 -12.2066 -12.2066 -12.2066 -12.2065 -12.2065 -12.2065 -12.2065
     2.9321   2.9321   2.9321   2.9321   2.9321   2.9321   2.9321   2.9321
     5.0617   5.0617   5.0617   5.0617   5.0617   5.0617   5.0618   5.0618
     9.5749   9.5749   9.5749   9.5749   9.5749   9.5749   9.5753   9.5757
     9.7610   9.7610   9.7610   9.7610   9.7610   9.7610

     the Fermi energy is     8.5060 ev

!    total energy              =   -2248.39329351 Ry
     Harris-Foulkes estimate   =   -2248.39329352 Ry
     estimated scf accuracy    <          4.9E-09 Ry

     total all-electron energy =    -90252.736670 Ry

     The total energy is the sum of the following terms:

     one-electron contribution =     -57.97080037 Ry
     hartree contribution      =      47.01428548 Ry
     xc contribution           =    -256.84434539 Ry
     ewald contribution        =    -232.54436692 Ry
     one-center paw contrib.   =   -1748.04623238 Ry
     smearing contrib. (-TS)   =      -0.00183394 Ry

     convergence has been achieved in   7 iterations

     Writing output data file 2352.save
 
     init_run     :      2.06s CPU      2.68s WALL (       1 calls)
     electrons    :     22.01s CPU     23.70s WALL (       1 calls)

     Called by init_run:
     wfcinit      :      1.32s CPU      1.46s WALL (       1 calls)
     potinit      :      0.42s CPU      0.49s WALL (       1 calls)

     Called by electrons:
     c_bands      :     15.90s CPU     16.30s WALL (       7 calls)
     sum_band     :      2.46s CPU      2.63s WALL (       7 calls)
     v_of_rho     :      0.05s CPU      0.06s WALL (       8 calls)
     newd         :      0.79s CPU      0.93s WALL (       8 calls)
     PAW_pot      :      3.21s CPU      3.27s WALL (       8 calls)
     mix_rho      :      0.04s CPU      0.06s WALL (       7 calls)

     Called by c_bands:
     init_us_2    :      0.10s CPU      0.10s WALL (     150 calls)
     cegterg      :     13.81s CPU     14.18s WALL (      70 calls)

     Called by sum_band:
     sum_band:bec :      0.31s CPU      0.32s WALL (      70 calls)
     addusdens    :      0.33s CPU      0.44s WALL (       7 calls)

     Called by *egterg:
     h_psi        :      9.00s CPU      9.26s WALL (     278 calls)
     s_psi        :      1.11s CPU      1.12s WALL (     278 calls)
     g_psi        :      0.07s CPU      0.07s WALL (     198 calls)
     cdiaghg      :      1.73s CPU      1.83s WALL (     268 calls)

     Called by h_psi:
     h_psi:pot    :      8.87s CPU      9.13s WALL (     278 calls)
     h_psi:calbec :      0.87s CPU      0.90s WALL (     278 calls)
     vloc_psi     :      6.90s CPU      7.11s WALL (     278 calls)
     add_vuspsi   :      1.10s CPU      1.11s WALL (     278 calls)

     General routines
     calbec       :      1.16s CPU      1.20s WALL (     348 calls)
     fft          :      0.05s CPU      0.28s WALL (     148 calls)
     fftw         :      6.90s CPU      7.11s WALL (   58932 calls)
     davcio       :      0.00s CPU      0.01s WALL (      10 calls)
 
     Parallel routines
     fft_scatter  :      2.27s CPU      2.36s WALL (   59080 calls)
 
     PWSCF        :  0m25.03s CPU     1m40.74s WALL

 
   This run was terminated on:  11:38:38  30Nov2022            

=------------------------------------------------------------------------------=
   JOB DONE.
=------------------------------------------------------------------------------=
Removing 2352 from /home/shaharpit/tmp
