
     Program PWSCF v.6.1 (svn rev. 13369) starts on 30Nov2022 at 11:36:57 

     This program is part of the open-source Quantum ESPRESSO suite
     for quantum simulation of materials; please cite
         "P. Giannozzi et al., J. Phys.:Condens. Matter 21 395502 (2009);
          URL http://www.quantum-espresso.org", 
     in publications or presentations arising from this work. More details at
     http://www.quantum-espresso.org/quote

     Parallel version (MPI), running on     8 processors
     R & G space division:  proc/nbgrp/npool/nimage =       8
     Reading input from ./GdH2_1.in
Warning: card &IONS ignored
Warning: card 	ION_DYNAMICS='BFGS', ignored
Warning: card / ignored
Warning: card &CELL ignored
Warning: card / ignored

     Current dimensions of program PWSCF are:
     Max number of different atomic species (ntypx) = 10
     Max number of k-points (npk) =  40000
     Max angular momentum in pseudopotentials (lmaxx) =  3
               file Gd.rel-pbe-spdn-kjpaw_psl.1.0.0.UPF: wavefunction(s)  5P 5P renormalized
               file H.pbe-kjpaw_psl.0.1.UPF: wavefunction(s)  1S renormalized

     Subspace diagonalization in iterative solution of the eigenvalue problem:
     a serial algorithm will be used

     Found symmetry operation: I + (  0.0000 -0.5000 -0.5000)
     This is a supercell, fractional translations are disabled
 
     Parallelization info
     --------------------
     sticks:   dense  smooth     PW     G-vecs:    dense   smooth      PW
     Min         199     199     57                 5991     5991     935
     Max         200     200     59                 5994     5994     938
     Sum        1597    1597    465                47937    47937    7497
 


     bravais-lattice index     =            0
     lattice parameter (alat)  =      10.0212  a.u.
     unit-cell volume          =    1006.3788 (a.u.)^3
     number of atoms/cell      =           12
     number of atomic types    =            2
     number of electrons       =        52.00
     number of Kohn-Sham states=           62
     kinetic-energy cutoff     =      50.0000  Ry
     charge density cutoff     =     200.0000  Ry
     convergence threshold     =      1.0E-06
     mixing beta               =       0.7000
     number of iterations used =            8  plain     mixing
     Exchange-correlation      =  SLA  PW   PBX  PBC ( 1  4  3  4 0 0)
     Non magnetic calculation with spin-orbit


     celldm(1)=  10.021218  celldm(2)=   0.000000  celldm(3)=   0.000000
     celldm(4)=   0.000000  celldm(5)=   0.000000  celldm(6)=   0.000000

     crystal axes: (cart. coord. in units of alat)
               a(1) = (   1.000000   0.000000   0.000000 )  
               a(2) = (   0.000000   1.000000   0.000000 )  
               a(3) = (   0.000000   0.000000   1.000000 )  

     reciprocal axes: (cart. coord. in units 2 pi/alat)
               b(1) = (  1.000000  0.000000  0.000000 )  
               b(2) = (  0.000000  1.000000  0.000000 )  
               b(3) = (  0.000000  0.000000  1.000000 )  


     PseudoPot. # 1 for Gd read from file:
     /home/shaharpit/MeamGdH/dft/qe_potentials/Gd.rel-pbe-spdn-kjpaw_psl.1.0.0.UPF
     MD5 check sum: cf50ec46d1536b4a0251694df1946a53
     Pseudo is Projector augmented-wave + core cor, Zval = 11.0
     Generated using "atomic" code by A. Dal Corso  v.6.2.2
     Shape of augmentation charge: PSQ
     Using radial grid of 1263 points, 10 beta functions with: 
                l(1) =   0
                l(2) =   0
                l(3) =   1
                l(4) =   1
                l(5) =   1
                l(6) =   1
                l(7) =   2
                l(8) =   2
                l(9) =   2
               l(10) =   2
     Q(r) pseudized with 0 coefficients 


     PseudoPot. # 2 for  H read from file:
     /home/shaharpit/MeamGdH/dft/qe_potentials/H.pbe-kjpaw_psl.0.1.UPF
     MD5 check sum: fbb168fef676c0aaadbafd73f5b1efa8
     Pseudo is Projector augmented-wave, Zval =  1.0
     Generated using "atomic" code by A. Dal Corso  v.5.0.2 svn rev. 9415
     Shape of augmentation charge: PSQ
     Using radial grid of  929 points,  2 beta functions with: 
                l(1) =   0
                l(2) =   0
     Q(r) pseudized with 0 coefficients 


     atomic species   valence    mass     pseudopotential
        Gd            11.00   157.25000     Gd( 1.00)
        H              1.00     1.00794      H( 1.00)

     48 Sym. Ops., with inversion, found



   Cartesian axes

     site n.     atom                  positions (alat units)
         1           Gd  tau(   1) = (   0.0000000   0.0000000   0.0000000  )
         2           Gd  tau(   2) = (   0.0000000   0.5000000   0.5000000  )
         3           Gd  tau(   3) = (   0.5000000   0.0000000   0.5000000  )
         4           Gd  tau(   4) = (   0.5000000   0.5000000   0.0000000  )
         5           H   tau(   5) = (   0.2500000   0.2500000   0.2500000  )
         6           H   tau(   6) = (   0.2500000   0.7500000   0.7500000  )
         7           H   tau(   7) = (   0.7500000   0.2500000   0.7500000  )
         8           H   tau(   8) = (   0.7500000   0.7500000   0.2500000  )
         9           H   tau(   9) = (   0.2500000   0.7500000   0.2500000  )
        10           H   tau(  10) = (   0.2500000   0.2500000   0.7500000  )
        11           H   tau(  11) = (   0.7500000   0.7500000   0.7500000  )
        12           H   tau(  12) = (   0.7500000   0.2500000   0.2500000  )

     number of k points=    10  gaussian smearing, width (Ry)=  0.0100
                       cart. coord. in units 2pi/alat
        k(    1) = (   0.0000000   0.0000000   0.0000000), wk =   0.0156250
        k(    2) = (   0.0000000   0.0000000   0.2500000), wk =   0.0937500
        k(    3) = (   0.0000000   0.0000000  -0.5000000), wk =   0.0468750
        k(    4) = (   0.0000000   0.2500000   0.2500000), wk =   0.1875000
        k(    5) = (   0.0000000   0.2500000  -0.5000000), wk =   0.1875000
        k(    6) = (   0.0000000  -0.5000000  -0.5000000), wk =   0.0468750
        k(    7) = (   0.2500000   0.2500000   0.2500000), wk =   0.1250000
        k(    8) = (   0.2500000   0.2500000  -0.5000000), wk =   0.1875000
        k(    9) = (   0.2500000  -0.5000000  -0.5000000), wk =   0.0937500
        k(   10) = (  -0.5000000  -0.5000000  -0.5000000), wk =   0.0156250

     Dense  grid:    47937 G-vectors     FFT dimensions: (  45,  45,  45)

     Estimated max dynamical RAM per process >      41.11MB

     Estimated total allocated dynamical RAM >     328.87MB

     Check: negative/imaginary core charge=   -0.000002    0.000000

     Initial potential from superposition of free atoms

     starting charge   51.92374, renormalised to   52.00000
     Starting wfc are  120 randomized atomic wfcs
     Checking if some PAW data can be deallocated... 

     total cpu time spent up to now is        4.3 secs

     per-process dynamical memory:    78.0 Mb

     Self-consistent Calculation

     iteration #  1     ecut=    50.00 Ry     beta=0.70
     Davidson diagonalization with overlap
     ethr =  1.00E-02,  avg # of iterations =  2.0

     total cpu time spent up to now is        7.1 secs

     total energy              =   -2248.31954624 Ry
     Harris-Foulkes estimate   =   -2248.64576097 Ry
     estimated scf accuracy    <       0.57592040 Ry

     iteration #  2     ecut=    50.00 Ry     beta=0.70
     Davidson diagonalization with overlap
     ethr =  1.11E-03,  avg # of iterations =  2.8

     total cpu time spent up to now is       10.2 secs

     total energy              =   -2248.42248370 Ry
     Harris-Foulkes estimate   =   -2248.42769644 Ry
     estimated scf accuracy    <       0.00864404 Ry

     iteration #  3     ecut=    50.00 Ry     beta=0.70
     Davidson diagonalization with overlap
     ethr =  1.66E-05,  avg # of iterations =  2.7

     total cpu time spent up to now is       13.7 secs

     total energy              =   -2248.42542292 Ry
     Harris-Foulkes estimate   =   -2248.42538576 Ry
     estimated scf accuracy    <       0.00020171 Ry

     iteration #  4     ecut=    50.00 Ry     beta=0.70
     Davidson diagonalization with overlap
     ethr =  3.88E-07,  avg # of iterations =  4.4

     total cpu time spent up to now is       17.6 secs

     total energy              =   -2248.42548845 Ry
     Harris-Foulkes estimate   =   -2248.42549370 Ry
     estimated scf accuracy    <       0.00001383 Ry

     iteration #  5     ecut=    50.00 Ry     beta=0.70
     Davidson diagonalization with overlap
     ethr =  2.66E-08,  avg # of iterations =  2.8

     total cpu time spent up to now is       21.0 secs

     total energy              =   -2248.42549231 Ry
     Harris-Foulkes estimate   =   -2248.42549373 Ry
     estimated scf accuracy    <       0.00000507 Ry

     iteration #  6     ecut=    50.00 Ry     beta=0.70
     Davidson diagonalization with overlap
     ethr =  9.75E-09,  avg # of iterations =  2.9

     total cpu time spent up to now is       24.1 secs

     total energy              =   -2248.42549329 Ry
     Harris-Foulkes estimate   =   -2248.42549407 Ry
     estimated scf accuracy    <       0.00000167 Ry

     iteration #  7     ecut=    50.00 Ry     beta=0.70
     Davidson diagonalization with overlap
     ethr =  3.22E-09,  avg # of iterations =  2.8

     total cpu time spent up to now is       27.1 secs

     End of self-consistent calculation

          k = 0.0000 0.0000 0.0000 (  6031 PWs)   bands (ev):

   -34.5702 -34.5702 -34.5108 -34.5108 -34.5108 -34.5108 -34.5107 -34.5107
   -15.3742 -15.3742 -15.3742 -15.3742 -15.3741 -15.3741 -15.1471 -15.1471
   -11.3100 -11.3100 -11.3099 -11.3099 -11.3099 -11.3099 -10.9968 -10.9968
   -10.9967 -10.9967 -10.9967 -10.9967 -10.7657 -10.7657 -10.7657 -10.7657
     1.7454   1.7454   4.4818   4.4818   4.4818   4.4818   4.4818   4.4818
     6.0852   6.0852   6.0852   6.0852   6.0852   6.0852   7.6404   7.6404
     7.6404   7.6404   7.6405   7.6405   8.1545   8.1545  10.6315  10.6315
    10.6315  10.6315  10.7913  10.7913  13.2287  13.2287

          k = 0.0000 0.0000 0.2500 (  6023 PWs)   bands (ev):

   -34.5615 -34.5615 -34.5195 -34.5195 -34.5108 -34.5108 -34.5107 -34.5107
   -15.3732 -15.3732 -15.3731 -15.3731 -15.3416 -15.3416 -15.1810 -15.1810
   -11.2823 -11.2823 -11.2822 -11.2822 -11.2390 -11.2390 -11.0341 -11.0341
   -11.0340 -11.0340 -10.9636 -10.9636 -10.8554 -10.8554 -10.8002 -10.8002
     2.2001   2.2001   4.6943   4.6943   4.6943   4.6943   4.7774   4.7774
     4.9997   4.9997   5.8341   5.8341   5.8341   5.8341   7.0175   7.0175
     8.0650   8.0650   8.0651   8.0651   8.6530   8.6530  10.9097  10.9097
    11.0397  11.0397  12.3207  12.3207  12.3487  12.3487

          k = 0.0000 0.0000-0.5000 (  5942 PWs)   bands (ev):

   -34.5406 -34.5406 -34.5405 -34.5405 -34.5108 -34.5108 -34.5107 -34.5107
   -15.3721 -15.3721 -15.3721 -15.3721 -15.2620 -15.2620 -15.2620 -15.2620
   -11.2423 -11.2423 -11.2422 -11.2422 -11.0836 -11.0836 -11.0836 -11.0836
   -11.0565 -11.0565 -11.0565 -11.0565 -10.8826 -10.8826 -10.8826 -10.8826
     3.4164   3.4164   3.4164   3.4164   5.1324   5.1324   5.1324   5.1324
     5.3589   5.3589   5.3589   5.3589   5.6498   5.6498   5.6498   5.6498
     8.7083   8.7083   8.7084   8.7084  10.4003  10.4003  10.4004  10.4005
    11.5217  11.5217  11.5218  11.5220  11.7909  11.7913

          k = 0.0000 0.2500 0.2500 (  6016 PWs)   bands (ev):

   -34.5541 -34.5541 -34.5182 -34.5182 -34.5182 -34.5182 -34.5120 -34.5120
   -15.3685 -15.3685 -15.3463 -15.3463 -15.3462 -15.3462 -15.2104 -15.2104
   -11.2671 -11.2671 -11.2349 -11.2349 -11.2349 -11.2349 -11.0378 -11.0378
   -10.9898 -10.9898 -10.9897 -10.9897 -10.9471 -10.9471 -10.8109 -10.8109
     2.5913   2.5913   4.7484   4.7484   4.8916   4.8916   4.8916   4.8916
     5.0431   5.0431   5.0432   5.0432   5.6907   5.6907   6.5046   6.5046
     8.4521   8.4521   8.8283   8.8283   8.8283   8.8283  10.8970  10.8970
    11.1904  11.1904  12.3959  12.3960  12.5742  12.5743

          k = 0.0000 0.2500-0.5000 (  6018 PWs)   bands (ev):

   -34.5362 -34.5362 -34.5361 -34.5361 -34.5151 -34.5151 -34.5150 -34.5150
   -15.3574 -15.3574 -15.3573 -15.3573 -15.2796 -15.2796 -15.2795 -15.2795
   -11.2398 -11.2398 -11.2397 -11.2397 -11.1060 -11.1060 -11.1059 -11.1059
   -11.0303 -11.0303 -11.0303 -11.0303 -10.8907 -10.8907 -10.8907 -10.8907
     3.6415   3.6415   3.6415   3.6415   4.8783   4.8783   4.8783   4.8783
     5.3402   5.3402   5.3402   5.3402   5.6049   5.6049   5.6049   5.6049
     9.0542   9.0542   9.0543   9.0543  10.2369  10.2369  10.2370  10.2370
    11.8771  11.8772  11.8772  11.8772  11.9027  11.9027

          k = 0.0000-0.5000-0.5000 (  6024 PWs)   bands (ev):

   -34.5256 -34.5256 -34.5256 -34.5256 -34.5256 -34.5256 -34.5255 -34.5255
   -15.3198 -15.3198 -15.3198 -15.3198 -15.3198 -15.3198 -15.3197 -15.3197
   -11.1921 -11.1921 -11.1921 -11.1921 -11.1921 -11.1921 -11.1920 -11.1920
   -10.9421 -10.9421 -10.9421 -10.9421 -10.9420 -10.9420 -10.9420 -10.9420
     4.2176   4.2176   4.2176   4.2176   4.2176   4.2176   4.2177   4.2177
     5.4762   5.4762   5.4762   5.4762   5.4762   5.4762   5.4762   5.4762
     9.8039   9.8039   9.8039   9.8039   9.8039   9.8039   9.8041   9.8041
    11.8716  11.8716  11.8717  11.8717  11.8718  11.8720

          k = 0.2500 0.2500 0.2500 (  6007 PWs)   bands (ev):

   -34.5479 -34.5479 -34.5182 -34.5182 -34.5182 -34.5182 -34.5181 -34.5181
   -15.3472 -15.3472 -15.3472 -15.3472 -15.3471 -15.3471 -15.2354 -15.2354
   -11.2449 -11.2449 -11.2448 -11.2448 -11.2448 -11.2448 -11.0296 -11.0296
   -10.9807 -10.9807 -10.9807 -10.9807 -10.9807 -10.9807 -10.8093 -10.8093
     2.8869   2.8869   4.5430   4.5430   4.5430   4.5430   4.5430   4.5430
     5.4730   5.4730   5.4730   5.4730   5.4730   5.4730   6.2471   6.2471
     9.0721   9.0721   9.0721   9.0721   9.0721   9.0721  10.9432  10.9432
    11.1424  11.1424  12.0213  12.0213  12.0213  12.0213

          k = 0.2500 0.2500-0.5000 (  6004 PWs)   bands (ev):

   -34.5331 -34.5331 -34.5330 -34.5330 -34.5182 -34.5182 -34.5181 -34.5181
   -15.3482 -15.3482 -15.3481 -15.3481 -15.2931 -15.2931 -15.2931 -15.2931
   -11.2540 -11.2540 -11.2540 -11.2540 -11.1602 -11.1602 -11.1601 -11.1601
   -10.9724 -10.9724 -10.9724 -10.9724 -10.8728 -10.8728 -10.8728 -10.8728
     3.6740   3.6740   3.6740   3.6740   4.3932   4.3932   4.3932   4.3932
     5.7014   5.7014   5.7014   5.7014   5.7418   5.7418   5.7418   5.7418
     9.4212   9.4212   9.4213   9.4213  10.3643  10.3643  10.3644  10.3644
    11.2575  11.2575  11.2576  11.2577  11.5367  11.5367

          k = 0.2500-0.5000-0.5000 (  6000 PWs)   bands (ev):

   -34.5256 -34.5256 -34.5256 -34.5256 -34.5256 -34.5256 -34.5254 -34.5254
   -15.3228 -15.3228 -15.3228 -15.3228 -15.3228 -15.3228 -15.3227 -15.3227
   -11.2339 -11.2339 -11.2339 -11.2339 -11.2338 -11.2338 -11.2338 -11.2338
   -10.8922 -10.8922 -10.8922 -10.8922 -10.8922 -10.8922 -10.8922 -10.8922
     3.8945   3.8945   3.8945   3.8945   3.8945   3.8945   3.8945   3.8945
     5.8855   5.8855   5.8855   5.8855   5.8855   5.8855   5.8855   5.8855
    10.1858  10.1858  10.1858  10.1858  10.1858  10.1859  10.1859  10.1859
    11.1099  11.1099  11.1099  11.1099  11.1100  11.1100

          k =-0.5000-0.5000-0.5000 (  6008 PWs)   bands (ev):

   -34.5256 -34.5256 -34.5256 -34.5256 -34.5256 -34.5256 -34.5254 -34.5254
   -15.3259 -15.3259 -15.3259 -15.3259 -15.3259 -15.3259 -15.3257 -15.3257
   -11.2658 -11.2658 -11.2658 -11.2658 -11.2658 -11.2658 -11.2658 -11.2658
   -10.8522 -10.8522 -10.8522 -10.8522 -10.8521 -10.8521 -10.8521 -10.8521
     3.6686   3.6686   3.6686   3.6686   3.6686   3.6686   3.6686   3.6686
     6.2009   6.2009   6.2009   6.2009   6.2009   6.2009   6.2009   6.2009
    10.6588  10.6588  10.6588  10.6588  10.6588  10.6588  10.6592  10.6595
    10.8452  10.8452  10.8452  10.8452  10.8453  10.8453

     the Fermi energy is     9.4740 ev

!    total energy              =   -2248.42549362 Ry
     Harris-Foulkes estimate   =   -2248.42549362 Ry
     estimated scf accuracy    <          2.3E-09 Ry

     total all-electron energy =    -90252.768870 Ry

     The total energy is the sum of the following terms:

     one-electron contribution =     -47.14707342 Ry
     hartree contribution      =      44.08746375 Ry
     xc contribution           =    -257.25294777 Ry
     ewald contribution        =    -240.05173928 Ry
     one-center paw contrib.   =   -1748.05937286 Ry
     smearing contrib. (-TS)   =      -0.00182404 Ry

     convergence has been achieved in   7 iterations

     Writing output data file 2350.save
 
     init_run     :      2.06s CPU      2.72s WALL (       1 calls)
     electrons    :     22.29s CPU     24.18s WALL (       1 calls)

     Called by init_run:
     wfcinit      :      1.35s CPU      1.50s WALL (       1 calls)
     potinit      :      0.43s CPU      0.53s WALL (       1 calls)

     Called by electrons:
     c_bands      :     16.13s CPU     16.46s WALL (       7 calls)
     sum_band     :      2.54s CPU      2.69s WALL (       7 calls)
     v_of_rho     :      0.05s CPU      0.06s WALL (       8 calls)
     newd         :      0.77s CPU      0.90s WALL (       8 calls)
     PAW_pot      :      3.21s CPU      3.28s WALL (       8 calls)
     mix_rho      :      0.04s CPU      0.05s WALL (       7 calls)

     Called by c_bands:
     init_us_2    :      0.09s CPU      0.09s WALL (     150 calls)
     cegterg      :     14.22s CPU     14.54s WALL (      70 calls)

     Called by sum_band:
     sum_band:bec :      0.31s CPU      0.31s WALL (      70 calls)
     addusdens    :      0.29s CPU      0.39s WALL (       7 calls)

     Called by *egterg:
     h_psi        :      9.69s CPU      9.94s WALL (     284 calls)
     s_psi        :      1.05s CPU      1.06s WALL (     284 calls)
     g_psi        :      0.06s CPU      0.07s WALL (     204 calls)
     cdiaghg      :      1.83s CPU      1.91s WALL (     274 calls)

     Called by h_psi:
     h_psi:pot    :      9.58s CPU      9.81s WALL (     284 calls)
     h_psi:calbec :      0.81s CPU      0.85s WALL (     284 calls)
     vloc_psi     :      7.72s CPU      7.90s WALL (     284 calls)
     add_vuspsi   :      1.05s CPU      1.06s WALL (     284 calls)

     General routines
     calbec       :      1.07s CPU      1.12s WALL (     354 calls)
     fft          :      0.04s CPU      0.23s WALL (     148 calls)
     fftw         :      8.04s CPU      8.22s WALL (   58792 calls)
     davcio       :      0.00s CPU      0.01s WALL (      10 calls)
 
     Parallel routines
     fft_scatter  :      2.14s CPU      2.21s WALL (   58940 calls)
 
     PWSCF        :  0m25.34s CPU     1m40.74s WALL

 
   This run was terminated on:  11:38:38  30Nov2022            

=------------------------------------------------------------------------------=
   JOB DONE.
=------------------------------------------------------------------------------=
Removing 2350 from /home/shaharpit/tmp
