
     Program PWSCF v.6.1 (svn rev. 13369) starts on 30Nov2022 at 11:36:57 

     This program is part of the open-source Quantum ESPRESSO suite
     for quantum simulation of materials; please cite
         "P. Giannozzi et al., J. Phys.:Condens. Matter 21 395502 (2009);
          URL http://www.quantum-espresso.org", 
     in publications or presentations arising from this work. More details at
     http://www.quantum-espresso.org/quote

     Parallel version (MPI), running on     8 processors
     R & G space division:  proc/nbgrp/npool/nimage =       8
     Reading input from ./GdH2_0.95.in
Warning: card &IONS ignored
Warning: card 	ION_DYNAMICS='BFGS', ignored
Warning: card / ignored
Warning: card &CELL ignored
Warning: card / ignored

     Current dimensions of program PWSCF are:
     Max number of different atomic species (ntypx) = 10
     Max number of k-points (npk) =  40000
     Max angular momentum in pseudopotentials (lmaxx) =  3
               file Gd.rel-pbe-spdn-kjpaw_psl.1.0.0.UPF: wavefunction(s)  5P 5P renormalized
               file H.pbe-kjpaw_psl.0.1.UPF: wavefunction(s)  1S renormalized

     Subspace diagonalization in iterative solution of the eigenvalue problem:
     a serial algorithm will be used

     Found symmetry operation: I + (  0.0000 -0.5000 -0.5000)
     This is a supercell, fractional translations are disabled
 
     Parallelization info
     --------------------
     sticks:   dense  smooth     PW     G-vecs:    dense   smooth      PW
     Min         193     193     54                 5719     5719     888
     Max         194     194     55                 5722     5722     893
     Sum        1549    1549    437                45769    45769    7123
 


     bravais-lattice index     =            0
     lattice parameter (alat)  =       9.8513  a.u.
     unit-cell volume          =     956.0592 (a.u.)^3
     number of atoms/cell      =           12
     number of atomic types    =            2
     number of electrons       =        52.00
     number of Kohn-Sham states=           62
     kinetic-energy cutoff     =      50.0000  Ry
     charge density cutoff     =     200.0000  Ry
     convergence threshold     =      1.0E-06
     mixing beta               =       0.7000
     number of iterations used =            8  plain     mixing
     Exchange-correlation      =  SLA  PW   PBX  PBC ( 1  4  3  4 0 0)
     Non magnetic calculation with spin-orbit


     celldm(1)=   9.851331  celldm(2)=   0.000000  celldm(3)=   0.000000
     celldm(4)=   0.000000  celldm(5)=   0.000000  celldm(6)=   0.000000

     crystal axes: (cart. coord. in units of alat)
               a(1) = (   1.000000   0.000000   0.000000 )  
               a(2) = (   0.000000   1.000000   0.000000 )  
               a(3) = (   0.000000   0.000000   1.000000 )  

     reciprocal axes: (cart. coord. in units 2 pi/alat)
               b(1) = (  1.000000  0.000000  0.000000 )  
               b(2) = (  0.000000  1.000000  0.000000 )  
               b(3) = (  0.000000  0.000000  1.000000 )  


     PseudoPot. # 1 for Gd read from file:
     /home/shaharpit/MeamGdH/dft/qe_potentials/Gd.rel-pbe-spdn-kjpaw_psl.1.0.0.UPF
     MD5 check sum: cf50ec46d1536b4a0251694df1946a53
     Pseudo is Projector augmented-wave + core cor, Zval = 11.0
     Generated using "atomic" code by A. Dal Corso  v.6.2.2
     Shape of augmentation charge: PSQ
     Using radial grid of 1263 points, 10 beta functions with: 
                l(1) =   0
                l(2) =   0
                l(3) =   1
                l(4) =   1
                l(5) =   1
                l(6) =   1
                l(7) =   2
                l(8) =   2
                l(9) =   2
               l(10) =   2
     Q(r) pseudized with 0 coefficients 


     PseudoPot. # 2 for  H read from file:
     /home/shaharpit/MeamGdH/dft/qe_potentials/H.pbe-kjpaw_psl.0.1.UPF
     MD5 check sum: fbb168fef676c0aaadbafd73f5b1efa8
     Pseudo is Projector augmented-wave, Zval =  1.0
     Generated using "atomic" code by A. Dal Corso  v.5.0.2 svn rev. 9415
     Shape of augmentation charge: PSQ
     Using radial grid of  929 points,  2 beta functions with: 
                l(1) =   0
                l(2) =   0
     Q(r) pseudized with 0 coefficients 


     atomic species   valence    mass     pseudopotential
        Gd            11.00   157.25000     Gd( 1.00)
        H              1.00     1.00794      H( 1.00)

     48 Sym. Ops., with inversion, found



   Cartesian axes

     site n.     atom                  positions (alat units)
         1           Gd  tau(   1) = (   0.0000000   0.0000000   0.0000000  )
         2           Gd  tau(   2) = (   0.0000000   0.5000000   0.5000000  )
         3           Gd  tau(   3) = (   0.5000000   0.0000000   0.5000000  )
         4           Gd  tau(   4) = (   0.5000000   0.5000000   0.0000000  )
         5           H   tau(   5) = (   0.2500000   0.2500000   0.2500000  )
         6           H   tau(   6) = (   0.2500000   0.7500000   0.7500000  )
         7           H   tau(   7) = (   0.7500000   0.2500000   0.7500000  )
         8           H   tau(   8) = (   0.7500000   0.7500000   0.2500000  )
         9           H   tau(   9) = (   0.2500000   0.7500000   0.2500000  )
        10           H   tau(  10) = (   0.2500000   0.2500000   0.7500000  )
        11           H   tau(  11) = (   0.7500000   0.7500000   0.7500000  )
        12           H   tau(  12) = (   0.7500000   0.2500000   0.2500000  )

     number of k points=    10  gaussian smearing, width (Ry)=  0.0100
                       cart. coord. in units 2pi/alat
        k(    1) = (   0.0000000   0.0000000   0.0000000), wk =   0.0156250
        k(    2) = (   0.0000000   0.0000000   0.2500000), wk =   0.0937500
        k(    3) = (   0.0000000   0.0000000  -0.5000000), wk =   0.0468750
        k(    4) = (   0.0000000   0.2500000   0.2500000), wk =   0.1875000
        k(    5) = (   0.0000000   0.2500000  -0.5000000), wk =   0.1875000
        k(    6) = (   0.0000000  -0.5000000  -0.5000000), wk =   0.0468750
        k(    7) = (   0.2500000   0.2500000   0.2500000), wk =   0.1250000
        k(    8) = (   0.2500000   0.2500000  -0.5000000), wk =   0.1875000
        k(    9) = (   0.2500000  -0.5000000  -0.5000000), wk =   0.0937500
        k(   10) = (  -0.5000000  -0.5000000  -0.5000000), wk =   0.0156250

     Dense  grid:    45769 G-vectors     FFT dimensions: (  45,  45,  45)

     Estimated max dynamical RAM per process >      39.29MB

     Estimated total allocated dynamical RAM >     314.33MB

     Check: negative/imaginary core charge=   -0.000001    0.000000

     Initial potential from superposition of free atoms

     starting charge   51.92374, renormalised to   52.00000
     Starting wfc are  120 randomized atomic wfcs
     Checking if some PAW data can be deallocated... 

     total cpu time spent up to now is        4.2 secs

     per-process dynamical memory:    76.2 Mb

     Self-consistent Calculation

     iteration #  1     ecut=    50.00 Ry     beta=0.70
     Davidson diagonalization with overlap
     ethr =  1.00E-02,  avg # of iterations =  2.1

     total cpu time spent up to now is        7.4 secs

     total energy              =   -2248.32080237 Ry
     Harris-Foulkes estimate   =   -2248.64828921 Ry
     estimated scf accuracy    <       0.58391553 Ry

     iteration #  2     ecut=    50.00 Ry     beta=0.70
     Davidson diagonalization with overlap
     ethr =  1.12E-03,  avg # of iterations =  2.6

     total cpu time spent up to now is       10.5 secs

     total energy              =   -2248.42106824 Ry
     Harris-Foulkes estimate   =   -2248.42521153 Ry
     estimated scf accuracy    <       0.00705854 Ry

     iteration #  3     ecut=    50.00 Ry     beta=0.70
     Davidson diagonalization with overlap
     ethr =  1.36E-05,  avg # of iterations =  2.7

     total cpu time spent up to now is       13.9 secs

     total energy              =   -2248.42373214 Ry
     Harris-Foulkes estimate   =   -2248.42370817 Ry
     estimated scf accuracy    <       0.00019549 Ry

     iteration #  4     ecut=    50.00 Ry     beta=0.70
     Davidson diagonalization with overlap
     ethr =  3.76E-07,  avg # of iterations =  4.0

     total cpu time spent up to now is       19.5 secs

     total energy              =   -2248.42378394 Ry
     Harris-Foulkes estimate   =   -2248.42379288 Ry
     estimated scf accuracy    <       0.00001976 Ry

     iteration #  5     ecut=    50.00 Ry     beta=0.70
     Davidson diagonalization with overlap
     ethr =  3.80E-08,  avg # of iterations =  2.8

     total cpu time spent up to now is       35.5 secs

     total energy              =   -2248.42378876 Ry
     Harris-Foulkes estimate   =   -2248.42378921 Ry
     estimated scf accuracy    <       0.00000459 Ry

     iteration #  6     ecut=    50.00 Ry     beta=0.70
     Davidson diagonalization with overlap
     ethr =  8.83E-09,  avg # of iterations =  2.8

     total cpu time spent up to now is       38.8 secs

     total energy              =   -2248.42378976 Ry
     Harris-Foulkes estimate   =   -2248.42379052 Ry
     estimated scf accuracy    <       0.00000136 Ry

     iteration #  7     ecut=    50.00 Ry     beta=0.70
     Davidson diagonalization with overlap
     ethr =  2.62E-09,  avg # of iterations =  2.1

     total cpu time spent up to now is       41.9 secs

     End of self-consistent calculation

          k = 0.0000 0.0000 0.0000 (  5695 PWs)   bands (ev):

   -33.8135 -33.8135 -33.7376 -33.7376 -33.7376 -33.7376 -33.7375 -33.7375
   -14.6456 -14.6456 -14.6456 -14.6456 -14.6455 -14.6455 -14.3694 -14.3694
   -10.6326 -10.6326 -10.6325 -10.6325 -10.6325 -10.6325 -10.2587 -10.2587
   -10.2587 -10.2587 -10.2587 -10.2587  -9.9851  -9.9851  -9.9851  -9.9851
     2.1758   2.1758   4.8913   4.8913   4.8913   4.8913   4.8913   4.8913
     6.7781   6.7781   6.7781   6.7781   6.7781   6.7781   8.1097   8.1097
     8.1097   8.1097   8.1097   8.1097   8.7420   8.7420  11.2505  11.2505
    11.2505  11.2506  11.4112  11.4112  14.0093  14.0093

          k = 0.0000 0.0000 0.2500 (  5694 PWs)   bands (ev):

   -33.8024 -33.8024 -33.7487 -33.7487 -33.7376 -33.7376 -33.7375 -33.7375
   -14.6439 -14.6439 -14.6439 -14.6439 -14.6060 -14.6060 -14.4108 -14.4108
   -10.6008 -10.6008 -10.6007 -10.6007 -10.5495 -10.5495 -10.3041 -10.3041
   -10.3040 -10.3040 -10.2195 -10.2195 -10.0936 -10.0936 -10.0261 -10.0261
     2.6645   2.6645   5.1415   5.1415   5.1415   5.1415   5.1991   5.1991
     5.6202   5.6202   6.4801   6.4801   6.4801   6.4801   7.5385   7.5385
     8.5584   8.5584   8.5584   8.5584   9.1770   9.1770  11.5490  11.5490
    11.6817  11.6817  13.0343  13.0344  13.0511  13.0512

          k = 0.0000 0.0000-0.5000 (  5702 PWs)   bands (ev):

   -33.7757 -33.7757 -33.7756 -33.7756 -33.7375 -33.7375 -33.7375 -33.7375
   -14.6423 -14.6423 -14.6423 -14.6423 -14.5093 -14.5093 -14.5093 -14.5093
   -10.5547 -10.5547 -10.5546 -10.5546 -10.3637 -10.3637 -10.3637 -10.3637
   -10.3341 -10.3341 -10.3341 -10.3341 -10.1238 -10.1238 -10.1238 -10.1238
     3.9587   3.9587   3.9587   3.9587   5.6633   5.6633   5.6633   5.6633
     5.9129   5.9129   5.9129   5.9129   6.1084   6.1084   6.1084   6.1084
     9.2348   9.2348   9.2349   9.2349  10.9874  10.9874  10.9875  10.9875
    12.2268  12.2269  12.2270  12.2272  12.4875  12.4876

          k = 0.0000 0.2500 0.2500 (  5700 PWs)   bands (ev):

   -33.7929 -33.7929 -33.7471 -33.7471 -33.7470 -33.7470 -33.7391 -33.7391
   -14.6382 -14.6382 -14.6115 -14.6115 -14.6114 -14.6114 -14.4466 -14.4466
   -10.5838 -10.5838 -10.5450 -10.5450 -10.5450 -10.5450 -10.3083 -10.3083
   -10.2515 -10.2515 -10.2515 -10.2515 -10.2033 -10.2033 -10.0387 -10.0387
     3.0796   3.0796   5.2222   5.2222   5.3674   5.3674   5.3674   5.3674
     5.6284   5.6284   5.6284   5.6284   6.3057   6.3057   7.0118   7.0118
     8.9691   8.9691   9.3510   9.3510   9.3510   9.3510  11.5343  11.5343
    11.8350  11.8350  13.1066  13.1067  13.3229  13.3230

          k = 0.0000 0.2500-0.5000 (  5716 PWs)   bands (ev):

   -33.7700 -33.7700 -33.7700 -33.7700 -33.7431 -33.7431 -33.7430 -33.7430
   -14.6248 -14.6248 -14.6247 -14.6247 -14.5307 -14.5307 -14.5307 -14.5307
   -10.5518 -10.5518 -10.5518 -10.5518 -10.3925 -10.3925 -10.3925 -10.3925
   -10.2999 -10.2999 -10.2998 -10.2998 -10.1337 -10.1337 -10.1337 -10.1337
     4.1861   4.1861   4.1862   4.1862   5.4163   5.4163   5.4163   5.4163
     5.8823   5.8823   5.8823   5.8823   6.0838   6.0838   6.0838   6.0838
     9.5957   9.5957   9.5957   9.5957  10.8207  10.8207  10.8207  10.8207
    12.5830  12.5831  12.5831  12.5968  12.5985  12.5986

          k = 0.0000-0.5000-0.5000 (  5712 PWs)   bands (ev):

   -33.7565 -33.7565 -33.7565 -33.7565 -33.7565 -33.7565 -33.7564 -33.7564
   -14.5797 -14.5797 -14.5797 -14.5797 -14.5797 -14.5797 -14.5796 -14.5796
   -10.4950 -10.4950 -10.4949 -10.4949 -10.4949 -10.4949 -10.4949 -10.4949
   -10.1948 -10.1948 -10.1947 -10.1947 -10.1947 -10.1947 -10.1947 -10.1947
     4.7625   4.7625   4.7625   4.7625   4.7625   4.7625   4.7625   4.7625
     5.9923   5.9923   5.9923   5.9923   5.9923   5.9923   5.9923   5.9923
    10.3794  10.3794  10.3794  10.3794  10.3794  10.3794  10.3794  10.3794
    12.5526  12.5526  12.5526  12.5527  12.5528  12.5529

          k = 0.2500 0.2500 0.2500 (  5692 PWs)   bands (ev):

   -33.7850 -33.7850 -33.7470 -33.7470 -33.7470 -33.7470 -33.7469 -33.7469
   -14.6128 -14.6128 -14.6128 -14.6128 -14.6127 -14.6127 -14.4773 -14.4773
   -10.5567 -10.5567 -10.5567 -10.5567 -10.5566 -10.5566 -10.3013 -10.3013
   -10.2408 -10.2408 -10.2408 -10.2408 -10.2408 -10.2408 -10.0364 -10.0364
     3.3811   3.3811   5.0319   5.0319   5.0319   5.0319   5.0319   5.0319
     6.0589   6.0589   6.0589   6.0589   6.0589   6.0589   6.7680   6.7680
     9.6061   9.6061   9.6062   9.6062   9.6062   9.6062  11.5804  11.5804
    11.7801  11.7801  12.7217  12.7217  12.7217  12.7217

          k = 0.2500 0.2500-0.5000 (  5728 PWs)   bands (ev):

   -33.7660 -33.7660 -33.7660 -33.7660 -33.7470 -33.7470 -33.7469 -33.7469
   -14.6142 -14.6142 -14.6141 -14.6141 -14.5477 -14.5477 -14.5477 -14.5477
   -10.5675 -10.5675 -10.5674 -10.5674 -10.4560 -10.4560 -10.4559 -10.4559
   -10.2311 -10.2311 -10.2311 -10.2311 -10.1122 -10.1122 -10.1122 -10.1122
     4.1796   4.1796   4.1797   4.1797   4.8770   4.8770   4.8770   4.8770
     6.2838   6.2838   6.2838   6.2838   6.3046   6.3046   6.3046   6.3046
     9.9755   9.9755   9.9755   9.9755  10.9544  10.9544  10.9545  10.9545
    11.9091  11.9091  11.9092  11.9093  12.2074  12.2074

          k = 0.2500-0.5000-0.5000 (  5716 PWs)   bands (ev):

   -33.7565 -33.7565 -33.7565 -33.7565 -33.7565 -33.7565 -33.7563 -33.7563
   -14.5841 -14.5841 -14.5841 -14.5841 -14.5841 -14.5841 -14.5840 -14.5840
   -10.5426 -10.5426 -10.5426 -10.5426 -10.5426 -10.5426 -10.5426 -10.5426
   -10.1352 -10.1352 -10.1352 -10.1352 -10.1351 -10.1351 -10.1351 -10.1351
     4.3620   4.3620   4.3620   4.3620   4.3620   4.3620   4.3620   4.3620
     6.5013   6.5013   6.5013   6.5013   6.5013   6.5013   6.5013   6.5013
    10.7744  10.7744  10.7744  10.7744  10.7745  10.7745  10.7745  10.7745
    11.7450  11.7450  11.7450  11.7451  11.7451  11.7451

          k =-0.5000-0.5000-0.5000 (  5832 PWs)   bands (ev):

   -33.7564 -33.7564 -33.7564 -33.7564 -33.7564 -33.7564 -33.7563 -33.7563
   -14.5886 -14.5886 -14.5886 -14.5886 -14.5886 -14.5886 -14.5885 -14.5885
   -10.5790 -10.5790 -10.5790 -10.5790 -10.5790 -10.5790 -10.5790 -10.5790
   -10.0869 -10.0869 -10.0869 -10.0869 -10.0869 -10.0869 -10.0869 -10.0869
     4.0961   4.0961   4.0962   4.0962   4.0962   4.0962   4.0962   4.0962
     6.8806   6.8806   6.8806   6.8806   6.8806   6.8806   6.8806   6.8806
    11.2733  11.2733  11.2733  11.2733  11.2733  11.2733  11.2738  11.2744
    11.4603  11.4603  11.4603  11.4603  11.4603  11.4603

     the Fermi energy is    10.0282 ev

!    total energy              =   -2248.42379004 Ry
     Harris-Foulkes estimate   =   -2248.42379004 Ry
     estimated scf accuracy    <          1.1E-09 Ry

     total all-electron energy =    -90252.767167 Ry

     The total energy is the sum of the following terms:

     one-electron contribution =     -41.20412056 Ry
     hartree contribution      =      42.52942322 Ry
     xc contribution           =    -257.48837070 Ry
     ewald contribution        =    -244.19143568 Ry
     one-center paw contrib.   =   -1748.06746437 Ry
     smearing contrib. (-TS)   =      -0.00182195 Ry

     convergence has been achieved in   7 iterations

     Writing output data file 2349.save
 
     init_run     :      2.13s CPU      2.71s WALL (       1 calls)
     electrons    :     23.57s CPU     38.55s WALL (       1 calls)

     Called by init_run:
     wfcinit      :      1.38s CPU      1.44s WALL (       1 calls)
     potinit      :      0.44s CPU      0.62s WALL (       1 calls)

     Called by electrons:
     c_bands      :     17.45s CPU     20.70s WALL (       7 calls)
     sum_band     :      2.45s CPU      2.59s WALL (       7 calls)
     v_of_rho     :      0.05s CPU      0.06s WALL (       8 calls)
     newd         :      0.76s CPU      0.87s WALL (       8 calls)
     PAW_pot      :      3.26s CPU      3.40s WALL (       8 calls)
     mix_rho      :      0.03s CPU      0.05s WALL (       7 calls)

     Called by c_bands:
     init_us_2    :      0.08s CPU      0.09s WALL (     150 calls)
     cegterg      :     15.66s CPU     16.37s WALL (      70 calls)

     Called by sum_band:
     sum_band:bec :      0.31s CPU      0.31s WALL (      70 calls)
     addusdens    :      0.27s CPU      0.36s WALL (       7 calls)

     Called by *egterg:
     h_psi        :     10.98s CPU     11.52s WALL (     271 calls)
     s_psi        :      0.99s CPU      0.99s WALL (     271 calls)
     g_psi        :      0.06s CPU      0.06s WALL (     191 calls)
     cdiaghg      :      1.81s CPU      1.85s WALL (     261 calls)

     Called by h_psi:
     h_psi:pot    :     10.88s CPU     11.42s WALL (     271 calls)
     h_psi:calbec :      0.85s CPU      0.90s WALL (     271 calls)
     vloc_psi     :      9.04s CPU      9.52s WALL (     271 calls)
     add_vuspsi   :      0.99s CPU      0.99s WALL (     271 calls)

     General routines
     calbec       :      1.10s CPU      1.15s WALL (     341 calls)
     fft          :      0.04s CPU      0.17s WALL (     148 calls)
     fftw         :      9.34s CPU      9.82s WALL (   59984 calls)
     davcio       :      0.00s CPU      0.01s WALL (      10 calls)
 
     Parallel routines
     fft_scatter  :      3.35s CPU      3.71s WALL (   60132 calls)
 
     PWSCF        :  0m26.52s CPU     1m21.79s WALL

 
   This run was terminated on:  11:38:19  30Nov2022            

=------------------------------------------------------------------------------=
   JOB DONE.
=------------------------------------------------------------------------------=
Removing 2349 from /home/shaharpit/tmp
